# vtk DataFile Version 2.0
Mesh3D
ASCII

DATASET UNSTRUCTURED_GRID
POINTS 44658 float
7.875  -3.26193  0.75
7.625  -3.15838  0.75
7.625  -2.90571  0.75
7.875  -3.00098  0.75
7.875  -3.26193  0.5
7.625  -3.15838  0.5
7.625  -2.90571  0.5
7.875  -3.00098  0.5
7.75  -3.21016  0.75
7.625  -3.03204  0.75
7.75  -2.95334  0.75
7.875  -3.13145  0.75
7.875  -3.26193  0.625
7.625  -3.15838  0.625
7.625  -2.90571  0.625
7.875  -3.00098  0.625
7.75  -3.21016  0.5
7.625  -3.03204  0.5
7.75  -2.95334  0.5
7.875  -3.13145  0.5
7.75  -3.08175  0.625
7.75  -3.08175  0.75
7.75  -3.08175  0.5
7.875  -3.13145  0.625
7.625  -3.03204  0.625
7.75  -3.21016  0.625
7.75  -2.95334  0.625
7.375  -3.05483  0.75
7.375  -2.81044  0.75
7.375  -3.05483  0.5
7.375  -2.81044  0.5
7.5  -3.1066  0.75
7.375  -2.93263  0.75
7.5  -2.85807  0.75
7.375  -3.05483  0.625
7.375  -2.81044  0.625
7.5  -3.1066  0.5
7.375  -2.93263  0.5
7.5  -2.85807  0.5
7.5  -2.98234  0.625
7.5  -2.98234  0.75
7.5  -2.98234  0.5
7.375  -2.93263  0.625
7.5  -3.1066  0.625
7.5  -2.85807  0.625
7.125  -2.95127  0.75
7.125  -2.71517  0.75
7.125  -2.95127  0.5
7.125  -2.71517  0.5
7.25  -3.00305  0.75
7.125  -2.83322  0.75
7.25  -2.7628  0.75
7.125  -2.95127  0.625
7.125  -2.71517  0.625
7.25  -3.00305  0.5
7.125  -2.83322  0.5
7.25  -2.7628  0.5
7.25  -2.88293  0.625
7.25  -2.88293  0.75
7.25  -2.88293  0.5
7.125  -2.83322  0.625
7.25  -3.00305  0.625
7.25  -2.7628  0.625
6.875  -2.84772  0.75
6.875  -2.6199  0.75
6.875  -2.84772  0.5
6.875  -2.6199  0.5
7  -2.89949  0.75
6.875  -2.73381  0.75
7  -2.66754  0.75
6.875  -2.84772  0.625
6.875  -2.6199  0.625
7  -2.89949  0.5
6.875  -2.73381  0.5
7  -2.66754  0.5
7  -2.78352  0.625
7  -2.78352  0.75
7  -2.78352  0.5
6.875  -2.73381  0.625
7  -2.89949  0.625
7  -2.66754  0.625
7.625  -2.65304  0.75
7.875  -2.74002  0.75
7.625  -2.65304  0.5
7.875  -2.74002  0.5
7.625  -2.77937  0.75
7.75  -2.69653  0.75
7.875  -2.8705  0.75
7.625  -2.65304  0.625
7.875  -2.74002  0.625
7.625  -2.77937  0.5
7.75  -2.69653  0.5
7.875  -2.8705  0.5
7.75  -2.82494  0.625
7.75  -2.82494  0.75
7.75  -2.82494  0.5
7.875  -2.8705  0.625
7.625  -2.77937  0.625
7.75  -2.69653  0.625
7.375  -2.56605  0.75
7.375  -2.56605  0.5
7.375  -2.68825  0.75
7.5  -2.60955  0.75
7.375  -2.56605  0.625
7.375  -2.68825  0.5
7.5  -2.60955  0.5
7.5  -2.73381  0.625
7.5  -2.73381  0.75
7.5  -2.73381  0.5
7.375  -2.68825  0.625
7.5  -2.60955  0.625
7.125  -2.47907  0.75
7.125  -2.47907  0.5
7.125  -2.59712  0.75
7.25  -2.52256  0.75
7.125  -2.47907  0.625
7.125  -2.59712  0.5
7.25  -2.52256  0.5
7.25  -2.64268  0.625
7.25  -2.64268  0.75
7.25  -2.64268  0.5
7.125  -2.59712  0.625
7.25  -2.52256  0.625
6.875  -2.39208  0.75
6.875  -2.39208  0.5
6.875  -2.50599  0.75
7  -2.43558  0.75
6.875  -2.39208  0.625
6.875  -2.50599  0.5
7  -2.43558  0.5
7  -2.55156  0.625
7  -2.55156  0.75
7  -2.55156  0.5
6.875  -2.50599  0.625
7  -2.43558  0.625
7.625  -2.40037  0.75
7.875  -2.47907  0.75
7.625  -2.40037  0.5
7.875  -2.47907  0.5
7.625  -2.5267  0.75
7.75  -2.43972  0.75
7.875  -2.60955  0.75
7.625  -2.40037  0.625
7.875  -2.47907  0.625
7.625  -2.5267  0.5
7.75  -2.43972  0.5
7.875  -2.60955  0.5
7.75  -2.56812  0.625
7.75  -2.56812  0.75
7.75  -2.56812  0.5
7.875  -2.60955  0.625
7.625  -2.5267  0.625
7.75  -2.43972  0.625
7.375  -2.32167  0.75
7.375  -2.32167  0.5
7.375  -2.44386  0.75
7.5  -2.36102  0.75
7.375  -2.32167  0.625
7.375  -2.44386  0.5
7.5  -2.36102  0.5
7.5  -2.48528  0.625
7.5  -2.48528  0.75
7.5  -2.48528  0.5
7.375  -2.44386  0.625
7.5  -2.36102  0.625
7.125  -2.24297  0.75
7.125  -2.24297  0.5
7.125  -2.36102  0.75
7.25  -2.28232  0.75
7.125  -2.24297  0.625
7.125  -2.36102  0.5
7.25  -2.28232  0.5
7.25  -2.40244  0.625
7.25  -2.40244  0.75
7.25  -2.40244  0.5
7.125  -2.36102  0.625
7.25  -2.28232  0.625
6.875  -2.16427  0.75
6.875  -2.16427  0.5
6.875  -2.27817  0.75
7  -2.20362  0.75
6.875  -2.16427  0.625
6.875  -2.27817  0.5
7  -2.20362  0.5
7  -2.3196  0.625
7  -2.3196  0.75
7  -2.3196  0.5
6.875  -2.27817  0.625
7  -2.20362  0.625
7.625  -2.1477  0.75
7.875  -2.21811  0.75
7.625  -2.1477  0.5
7.875  -2.21811  0.5
7.625  -2.27403  0.75
7.75  -2.18291  0.75
7.875  -2.34859  0.75
7.625  -2.1477  0.625
7.875  -2.21811  0.625
7.625  -2.27403  0.5
7.75  -2.18291  0.5
7.875  -2.34859  0.5
7.75  -2.31131  0.625
7.75  -2.31131  0.75
7.75  -2.31131  0.5
7.875  -2.34859  0.625
7.625  -2.27403  0.625
7.75  -2.18291  0.625
7.375  -2.07728  0.75
7.375  -2.07728  0.5
7.375  -2.19947  0.75
7.5  -2.11249  0.75
7.375  -2.07728  0.625
7.375  -2.19947  0.5
7.5  -2.11249  0.5
7.5  -2.23675  0.625
7.5  -2.23675  0.75
7.5  -2.23675  0.5
7.375  -2.19947  0.625
7.5  -2.11249  0.625
7.125  -2.00686  0.75
7.125  -2.00686  0.5
7.125  -2.12492  0.75
7.25  -2.04207  0.75
7.125  -2.00686  0.625
7.125  -2.12492  0.5
7.25  -2.04207  0.5
7.25  -2.16219  0.625
7.25  -2.16219  0.75
7.25  -2.16219  0.5
7.125  -2.12492  0.625
7.25  -2.04207  0.625
6.875  -1.93645  0.75
6.875  -1.93645  0.5
6.875  -2.05036  0.75
7  -1.97166  0.75
6.875  -1.93645  0.625
6.875  -2.05036  0.5
7  -1.97166  0.5
7  -2.08764  0.625
7  -2.08764  0.75
7  -2.08764  0.5
6.875  -2.05036  0.625
7  -1.97166  0.625
7.625  -1.89503  0.75
7.875  -1.95716  0.75
7.625  -1.89503  0.5
7.875  -1.95716  0.5
7.625  -2.02136  0.75
7.75  -1.92609  0.75
7.875  -2.08764  0.75
7.625  -1.89503  0.625
7.875  -1.95716  0.625
7.625  -2.02136  0.5
7.75  -1.92609  0.5
7.875  -2.08764  0.5
7.75  -2.0545  0.625
7.75  -2.0545  0.75
7.75  -2.0545  0.5
7.875  -2.08764  0.625
7.625  -2.02136  0.625
7.75  -1.92609  0.625
7.375  -1.8329  0.75
7.375  -1.8329  0.5
7.375  -1.95509  0.75
7.5  -1.86396  0.75
7.375  -1.8329  0.625
7.375  -1.95509  0.5
7.5  -1.86396  0.5
7.5  -1.98823  0.625
7.5  -1.98823  0.75
7.5  -1.98823  0.5
7.375  -1.95509  0.625
7.5  -1.86396  0.625
7.125  -1.77076  0.75
7.125  -1.77076  0.5
7.125  -1.88881  0.75
7.25  -1.80183  0.75
7.125  -1.77076  0.625
7.125  -1.88881  0.5
7.25  -1.80183  0.5
7.25  -1.92195  0.625
7.25  -1.92195  0.75
7.25  -1.92195  0.5
7.125  -1.88881  0.625
7.25  -1.80183  0.625
6.875  -1.70863  0.75
6.875  -1.70863  0.5
6.875  -1.82254  0.75
7  -1.7397  0.75
6.875  -1.70863  0.625
6.875  -1.82254  0.5
7  -1.7397  0.5
7  -1.85568  0.625
7  -1.85568  0.75
7  -1.85568  0.5
6.875  -1.82254  0.625
7  -1.7397  0.625
7.625  -1.64236  0.75
7.875  -1.6962  0.75
7.625  -1.64236  0.5
7.875  -1.6962  0.5
7.625  -1.76869  0.75
7.75  -1.66928  0.75
7.875  -1.82668  0.75
7.625  -1.64236  0.625
7.875  -1.6962  0.625
7.625  -1.76869  0.5
7.75  -1.66928  0.5
7.875  -1.82668  0.5
7.75  -1.79769  0.625
7.75  -1.79769  0.75
7.75  -1.79769  0.5
7.875  -1.82668  0.625
7.625  -1.76869  0.625
7.75  -1.66928  0.625
7.375  -1.58851  0.75
7.375  -1.58851  0.5
7.375  -1.7107  0.75
7.5  -1.61543  0.75
7.375  -1.58851  0.625
7.375  -1.7107  0.5
7.5  -1.61543  0.5
7.5  -1.7397  0.625
7.5  -1.7397  0.75
7.5  -1.7397  0.5
7.375  -1.7107  0.625
7.5  -1.61543  0.625
7.125  -1.53466  0.75
7.125  -1.53466  0.5
7.125  -1.65271  0.75
7.25  -1.56159  0.75
7.125  -1.53466  0.625
7.125  -1.65271  0.5
7.25  -1.56159  0.5
7.25  -1.68171  0.625
7.25  -1.68171  0.75
7.25  -1.68171  0.5
7.125  -1.65271  0.625
7.25  -1.56159  0.625
6.875  -1.48081  0.75
6.875  -1.48081  0.5
6.875  -1.59472  0.75
7  -1.50774  0.75
6.875  -1.48081  0.625
6.875  -1.59472  0.5
7  -1.50774  0.5
7  -1.62372  0.625
7  -1.62372  0.75
7  -1.62372  0.5
6.875  -1.59472  0.625
7  -1.50774  0.625
7.625  -1.38969  0.75
7.875  -1.43525  0.75
7.625  -1.38969  0.5
7.875  -1.43525  0.5
7.625  -1.51602  0.75
7.75  -1.41247  0.75
7.875  -1.56573  0.75
7.625  -1.38969  0.625
7.875  -1.43525  0.625
7.625  -1.51602  0.5
7.75  -1.41247  0.5
7.875  -1.56573  0.5
7.75  -1.54087  0.625
7.75  -1.54087  0.75
7.75  -1.54087  0.5
7.875  -1.56573  0.625
7.625  -1.51602  0.625
7.75  -1.41247  0.625
7.375  -1.34412  0.75
7.375  -1.34412  0.5
7.375  -1.46632  0.75
7.5  -1.3669  0.75
7.375  -1.34412  0.625
7.375  -1.46632  0.5
7.5  -1.3669  0.5
7.5  -1.49117  0.625
7.5  -1.49117  0.75
7.5  -1.49117  0.5
7.375  -1.46632  0.625
7.5  -1.3669  0.625
7.125  -1.29856  0.75
7.125  -1.29856  0.5
7.125  -1.41661  0.75
7.25  -1.32134  0.75
7.125  -1.29856  0.625
7.125  -1.41661  0.5
7.25  -1.32134  0.5
7.25  -1.44146  0.625
7.25  -1.44146  0.75
7.25  -1.44146  0.5
7.125  -1.41661  0.625
7.25  -1.32134  0.625
6.875  -1.253  0.75
6.875  -1.253  0.5
6.875  -1.3669  0.75
7  -1.27578  0.75
6.875  -1.253  0.625
6.875  -1.3669  0.5
7  -1.27578  0.5
7  -1.39176  0.625
7  -1.39176  0.75
7  -1.39176  0.5
6.875  -1.3669  0.625
7  -1.27578  0.625
7.625  -1.13702  0.75
7.875  -1.1743  0.75
7.625  -1.13702  0.5
7.875  -1.1743  0.5
7.625  -1.26335  0.75
7.75  -1.15566  0.75
7.875  -1.30477  0.75
7.625  -1.13702  0.625
7.875  -1.1743  0.625
7.625  -1.26335  0.5
7.75  -1.15566  0.5
7.875  -1.30477  0.5
7.75  -1.28406  0.625
7.75  -1.28406  0.75
7.75  -1.28406  0.5
7.875  -1.30477  0.625
7.625  -1.26335  0.625
7.75  -1.15566  0.625
7.375  -1.09974  0.75
7.375  -1.09974  0.5
7.375  -1.22193  0.75
7.5  -1.11838  0.75
7.375  -1.09974  0.625
7.375  -1.22193  0.5
7.5  -1.11838  0.5
7.5  -1.24264  0.625
7.5  -1.24264  0.75
7.5  -1.24264  0.5
7.375  -1.22193  0.625
7.5  -1.11838  0.625
7.125  -1.06246  0.75
7.125  -1.06246  0.5
7.125  -1.18051  0.75
7.25  -1.0811  0.75
7.125  -1.06246  0.625
7.125  -1.18051  0.5
7.25  -1.0811  0.5
7.25  -1.20122  0.625
7.25  -1.20122  0.75
7.25  -1.20122  0.5
7.125  -1.18051  0.625
7.25  -1.0811  0.625
6.875  -1.02518  0.75
6.875  -1.02518  0.5
6.875  -1.13909  0.75
[...]
CELL_DATA 4480
VECTORS current_real float
50430.052 1117427.3 -137046.08
342100.4 1538086.7 -41424.299
629178.75 1882778.2 -25857.461
380927.81 2729766.3 -9647.5303
55588.809 1266254.9 -56058.602
265973.79 1823668.3 -34237.322
325057.87 2074903.1 -20666.337
150197.54 2369417.4 -19100.82
44033.864 1505907.1 -31205.704
155715.42 1970104.9 -19170.527
142950.07 2086255.9 -16464.337
61606.679 2224258.4 -15902.969
12899.565 1704990.8 -21212.693
74900.233 2024933.4 -14588.748
68731.011 2078230.1 -13807.499
31091.722 2163134.3 -13707.986
-1846.1505 1832025.4 -17772.319
34986.389 2054290.3 -12283.47
33775.145 2077264.5 -11752.942
17195.414 2134584.3 -11775.082
-7704.6698 1916293.2 -15263.421
16228.515 2071399.6 -10421.368
17539.347 2080803.4 -9884.1099
10568.025 2120925.7 -9962.0474
-9276.3347 1975725.5 -12904.679
7407.8762 2082666.8 -8763.3994
9776.7415 2086260.7 -8344.8833
7207.4203 2114077.5 -8411.5303
-8836.341 2019507.5 -10699.224
3331.0404 2090614.7 -7230.8359
5645.5474 2091915.2 -6819.1419
4990.8561 2110610.1 -6930.0076
-7623.1185 2052131.2 -8511.2143
1289.5979 2096503.1 -5745.0541
3388.1124 2096811.9 -5392.516
3544.0524 2108950.7 -5513.6649
-5875.8393 2075964.4 -6349.9577
375.55552 2100750.2 -4268.2672
2021.0452 2100828.2 -4020.895
2503.2166 2108137.8 -4112.4338
-3923.1823 2092430 -4226.6591
150.23878 2103537.7 -2842.588
1219.8248 2103782.9 -2660.8802
1604.5523 2107740.2 -2731.2343
-1972.0748 2102146.9 -2106.5587
28.618958 2105153.5 -1414.7659
590.0833 2105563 -1326.0048
810.14672 2107544.8 -1360.882
0.12742618 2105356.6 0.56439912
-0.21867318 2105685 0.61827761
-0.66266957 2106174.6 0.79095633
-0.86923969 2107476.1 1.1334725
1972.3301 2102146.3 2107.6797
-29.054704 2105153.4 1415.9949
-591.40637 2105562.9 1327.5793
-811.88339 2107545.9 1363.1413
3923.4393 2092428.8 4227.755
-150.66898 2103537.6 2843.7928
-1221.1401 2103782.6 2662.4307
-1606.2828 2107742.3 2733.4689
5876.1002 2075962.5 6351.0044
-375.97391 2100749.9 4269.4251
-2022.3442 2100827.7 4022.3992
-2504.9347 2108140.9 4114.6208
7623.3877 2052128.5 8512.1746
-1289.9928 2096502.6 5746.1301
-3389.3803 2096811.1 5393.9393
-3545.7477 2108954.7 5515.7705
8836.6289 2019503.8 10700.039
-3331.3865 2090613.7 7231.7744
-5646.7559 2091913.9 6820.4306
-4992.5113 2110614.7 6931.9782
9276.6654 1975720.5 12905.253
-7408.1174 2082665.1 8764.1102
-9777.8327 2086258.7 8345.9485
-7209.0041 2114082.4 8413.2793
7705.1036 1916286.5 15263.602
-16228.515 2071396.6 10421.704
-17540.191 2080800 9884.803
-10569.475 2120930.4 9963.4297
1846.8336 1832016.4 17771.882
-34985.811 2054285.2 12283.195
-33775.424 2077258.8 11753.008
-17196.592 2134587.6 11775.845
-12898.317 1704978.7 21211.335
-74898.278 2024925.3 14587.508
-68729.899 2078220.5 13806.494
-31092.267 2163134.1 13707.663
-44031.589 1505891.6 31203.064
-155710.51 1970093.2 19167.87
-142945.36 2086240 16461.574
-61605.461 2224250.4 15900.66
-55585.084 1266235.8 56054.299
-265964.23 1823652.8 34232.702
-325044.01 2074881 20660.948
-150190.15 2369392.1 19095.795
-50421.833 1117409 137040.78
-342081.98 1538066.3 41417.062
-629156.31 1882746.6 25848.186
-380915.91 2729704.7 9634.9754
106001.97 1290568.3 -130993.79
399865.88 1508614 -41778.721
659023.92 1886493.7 -17553.657
395907.72 2672222.8 2973.2492
58876.544 1666178.6 -45043.981
244730.01 1815086.4 -27888.895
295818.94 2108378.8 -13026.06
130382.66 2292221.8 -10003.401
37890.629 1860995.8 -14898.664
132475.48 1971210.2 -12456.508
125387.7 2108805.9 -10583.146
47335.065 2163352.6 -8894.4287
9851.9957 1979750.9 -5203.7346
56935.374 2029565.2 -7914.7092
53725.482 2094095 -8818.97
19398.856 2114821.1 -7899.0371
-3633.936 2037888.7 -3603.4365
20786.832 2058325.8 -6448.5131
21462.455 2088985.9 -7551.1939
7509.6239 2097126.3 -6893.0805
-8673.6013 2067378.8 -3323.6173
5016.9675 2074742.6 -5539.5854
7534.8414 2089373.4 -6378.2562
2580.4574 2092472.4 -5861.0799
-9803.7381 2083171.3 -3040.0063
-1598.8253 2085385.2 -4759.2161
1601.8434 2092524.8 -5457.0108
675.14694 2093001.4 -5006.3528
-9107.185 2092271.9 -2728.8875
-3736.1901 2092879.1 -4018.3443
-896.09906 2096500.4 -4496.4013
-324.57565 2095702.3 -4164.8981
-7762.0944 2097875.4 -2286.0506
-4137.4956 2098616.1 -3249.5433
-1679.5352 2099990.3 -3581.7426
-616.32154 2099082.7 -3345.3866
-5920.4314 2101402.3 -1762.3006
-3588.5652 2102788.6 -2436.7651
-1721.4849 2103009.4 -2690.4216
-562.72372 2102181.2 -2508.6025
-3937.1543 2103730.7 -1204.9395
-2434.2599 2105522.5 -1639.4442
-1236.2969 2105297.2 -1786.1142
-425.21676 2104566.9 -1673.5614
-1972.0574 2105102.6 -605.66886
-1245.3922 2107144.1 -818.02694
-627.51016 2106662.1 -890.77876
-200.03942 2106039.7 -835.28826
-0.0053217943 2105550.2 0.67808541
-0.19889136 2107676.5 0.85601326
-0.36619626 2107135.9 1.0919736
-0.35586861 2106525.2 1.197479
1972.0471 2105102.5 607.00477
1244.9954 2107144.1 819.71946
626.77896 2106662.1 892.94377
199.32846 2106039.6 837.66501
3937.145 2103730.7 1206.2095
2433.8663 2105522.3 1641.0736
1235.5695 2105297 1788.2181
424.50834 2104566.5 1675.8792
5920.4247 2101402.2 1763.441
3588.1789 2102788.2 2438.2714
1720.7661 2103009.1 2692.4068
562.02072 2102180.6 2510.8074
7762.0933 2097875 2286.9626
4137.1243 2098615.6 3250.8345
1678.833 2099989.8 3583.5206
615.62852 2099081.7 3347.3974
9107.1966 2092271.2 2729.4118
3735.8505 2092878.2 4019.2727
895.43004 2096499.6 4497.8322
323.90114 2095700.9 4166.5851
9803.7793 2083170.1 3039.8855
1598.5558 2085383.7 4759.5407
-1602.4436 2092523.5 5457.8628
-675.78622 2092999.4 5007.5038
8673.7136 2067376.7 3322.445
-5017.074 2074740.1 5538.9126
-7535.2892 2089371.1 6378.14
-2581.0255 2092469.4 5861.3359
3634.2197 2037885.2 3600.6021
-20786.548 2058321.8 6446.2117
-21462.547 2088982 7549.4394
-7510.0378 2097121.7 6891.8096
-9851.3168 1979745.6 5198.4098
-56934.159 2029559 7909.8195
-53724.693 2094088.3 8814.4066
-19398.896 2114813.7 7895.0619
-37889.194 1860988.4 14889.871
-132472.19 1971201.1 12447.802
-125384.59 2108794.5 10573.757
-47334.057 2163339.7 8885.3269
-58874.035 1666168.9 45030.606
-244723.47 1815074.7 27875.38
-295809 2108363.3 13009.495
-130376.82 2292193 9983.0089
-105996.71 1290556.7 130975.52
-399853.05 1508599.1 41757.116
-659010.13 1886470.2 17528.955
-395901.54 2672174.9 -2999.319
125562.07 1260361.7 -21337.843
426406.34 1505200.8 -15675.881
669938.64 1885107.7 -5735.2541
398909.9 2682591.3 -1618.4044
66455.904 1602987 -17284.445
255509.42 1809857.5 -9711.6925
300795.83 2104112 -5003.758
130798.56 2303832.4 -2700.5228
41278.073 1821496.5 -7372.3141
135521.83 1968936 -5567.6568
125117.21 2105734.1 -3949.316
46005.221 2171105.6 -2592.1941
11930.663 1955232 -3313.4256
57908.066 2030465.9 -3398.7676
52581.339 2091839.6 -3172.7641
18086.673 2120680.7 -2282.2992
-1974.1911 2021670.8 -2001.9521
21369.307 2059718.9 -2598.7955
20305.128 2087286.5 -2661.5947
6322.9144 2101412.7 -1988.3991
-7229.4689 2055843.2 -1615.6077
5561.9272 2075780.5 -2189.9369
6574.7059 2088008.1 -2263.8508
1581.8434 2095523 -1717.5216
-8560.3235 2074971.4 -1391.004
-1086.1268 2085977.4 -1868.8249
833.61527 2091392.9 -1912.244
-141.92767 2095065.8 -1464.9248
-8064.8859 2086657.1 -1187.8247
-3266.3283 2093069.6 -1566.6084
-1496.6075 2095509.9 -1587.6514
-986.30641 2096939.9 -1222.4496
-6929.6605 2094255.8 -971.18352
-3742.5344 2098475.3 -1260.0751
-2144.0254 2099121 -1265.1906
-1140.5896 2099664.1 -982.45383
-5295.8788 2099293.5 -739.2751
-3287.2553 2102402.9 -948.63985
-2060.2643 2102220.1 -948.32444
-945.32085 2102253.9 -738.10264
-3520.9957 2102679.8 -497.90698
-2227.5097 2104966.8 -633.73381
-1455.5059 2104568 -631.2658
-677.16501 2104282.5 -492.84871
-1763.73 2104675.4 -249.42719
-1139.9993 2106484 -316.63157
-734.98589 2105969.2 -314.19618
-324.8616 2105548.7 -246.34664
-0.0068963181 2105330.9 0.79313183
-0.065903218 2106983.4 0.95644085
-0.095101851 2106452.8 1.1383575
-0.094522011 2105966.9 1.0613327
1763.7163 2104675.3 250.98591
1139.8678 2106483.9 318.51812
734.796 2105969.1 316.44767
324.67277 2105548.7 248.44561
3520.9824 2102679.8 499.37605
2227.3791 2104966.8 635.53504
1455.3171 2104568 633.43573
676.97686 2104282.5 494.87122
5295.8662 2099293.3 740.56792
3287.1267 2102402.8 950.2747
2060.0776 2102220 950.33585
945.13413 2102253.8 739.97844
6929.6495 2094255.6 972.16582
3742.41 2098475.1 1261.4192
2143.843 2099120.8 1266.9263
1140.4055 2099663.9 984.07798
8064.8784 2086656.8 1188.2807
3266.2124 2093069.2 1567.4626
1496.4335 2095509.6 1588.9251
986.12711 2096939.6 1223.6542
8560.3238 2074970.9 1390.586
1086.0291 2085976.9 1868.8653
-833.77229 2091392.4 1912.7486
141.75736 2095065.3 1465.4358
7229.4872 2055842.2 1613.7666
-5561.9845 2075779.6 2188.6371
-6574.8271 2088007.2 2263.0741
-1581.9967 2095522.2 1716.8784
1974.2517 2021669.4 1997.8608
-21369.274 2059717.4 2595.3151
-20305.175 2087285.2 2658.6658
-6323.0356 2101411.5 1985.8025
-11930.496 1955229.8 3305.9446
-57907.828 2030463.7 3391.826
-52581.244 2091837.4 3166.1851
-18086.742 2120678.8 2276.29
-41277.595 1821493.3 7360.0565
-135521.09 1968932.4 5555.5632
-125116.94 2105730.7 3936.5371
-46005.278 2171102.9 2579.8633
-66454.595 1602983.2 17265.745
-255506.76 1809851.6 9692.8326
-300796.31 2104104 4981.8081
-130800.51 2303833.7 2674.8992
-125560.63 1260356.7 21310.657
-426401.91 1505193.6 15646.219
-669929.88 1885099.1 5702.1494
-398904.06 2682589.5 1586.4976
-884712.05 801386.56 9763.0179
-890084.37 814521.94 21534.77
-888983.48 829871.93 32929.437
-1181116.7 904913.25 6121.7147
-1175299.2 912681.37 14752.914
-1193062.9 938360.96 20731.37
-1571409.5 1166504.1 1627.8942
-1564550 1170655.8 3276.8612
-1558272.2 1176964.4 12678.921
-2240483.8 1896118.2 -2277.4074
-2233200.5 1895021.1 -13201.444
-2203161.4 1874075.3 1394.8711
-781845.86 953378.38 17657.428
-759922.02 945040.51 55712.399
-789327.75 954270.15 59587.237
-843910.62 1242198.5 10150.945
-826076.57 1244358 18611.476
-871193.68 1228526.5 19959.5
-1102915.7 1650882.6 3892.3508
-1094380.7 1650395.7 6894.029
-1112243 1639230.1 13166.857
-1871371.7 2302762.5 -374.57561
-1863726.6 2298457.2 -3690.6469
-1869321 2293315.6 8211.4642
-988956.31 29187.127 57538.819
-1064960.1 33471.52 91228.627
-1160749.5 36372.381 56108.918
-1227618.6 36304.867 38645.433
-1288267.2 35105.175 30778.228
-1346600.1 33387.112 27769.197
-1400486.6 31642.063 26497.966
-1451472.4 29989.345 25993.579
-1499551.9 28441.602 25813.562
-1544860.4 26963.083 25462.271
-1587509.2 25548.079 24910.065
-1627492.2 24170.618 24331.795
-1664967.5 22896.313 23633.393
-1699549.9 21968.114 22846.925
-1730254.2 21499.091 22096.967
-1755076.7 22238.509 21386.971
-1770067.6 25412.472 20524.856
-1766548.4 33789.577 19436.981
-1726091.2 52798.061 17586.779
-1609859.2 90211.537 10497.879
-1400646.5 126494.34 12244.085
-1596483.3 135427.6 14766.539
-1798867 108591.88 20796.598
-1931120.3 69253.844 30063.774
-1984805.3 50497.751 33631.33
-1993897.8 42518.032 36594.154
-1977784.4 39888.465 39320.253
-1945969.5 39569.946 41987.567
-1903071.3 40675.904 44688.691
-1851540.4 42217.209 47334.938
-1792178.8 44051.57 49924.506
-1725436.8 46016.78 52527.748
-1651634 48168.115 55207.343
-1570752.7 50347.644 57766.711
-1482649.2 52640.847 60439.589
-1387507.6 55130.882 63328.586
-1286014.6 57900.347 66782.394
-1180206.9 60783.348 71984.308
-1073054.5 64638.433 78775.458
-987722.79 77629.149 97204.851
-989743.55 124987.04 128342.7
-982988.74 112050.49 74040.76
-933774.61 93509.068 56515.965
-916370.33 107992.37 84995.007
-939572.3 95634.509 76939.344
-722326.88 -43563.268 -98994.892
-385620.76 -39998.219 -26390.383
-76006.801 121287.81 -84638.279
-1100689.5 221250.66 72387.209
-1188583.4 242194.63 80110.23
-397746.85 -56248.835 -149007.54
-571997.64 -35663.606 13134.829
-773767.68 -10877.131 28322.681
-899135.66 4904.5928 8815.6832
-946038.02 26869.124 37399.045
-1026136.3 33314.46 54521.812
-1116714 32506.533 33446.449
-1183864.5 32706.405 20228.481
-1250126.5 31245.44 8913.1621
-1313009 30443.436 1826.5441
-1372638.6 28135.956 2779.7078
-1428272.3 26464.862 3626.8072
-1480119.3 25128.112 4799.4615
-1528654.1 23753.176 5947.1586
-1574092.6 22516.624 6638.7597
-1616619.6 21289.811 7069.5659
-1656423.9 20123.483 7242.231
-1693387.8 19095.127 7174.7407
-1727019.5 18381.597 7010.233
-1756550.1 18182.479 6817.9944
-1780205.2 19075.922 6636.4225
-1793395.6 22603.241 6215.6585
-1786797 31350.35 5628.0349
-1741313.2 50753.252 4577.0834
-1622191 88359.946 3164.6601
-1428401.4 123801.67 8167.5211
-1108008.4 211911.95 8158.3518
-1035558.2 -16601.088 125239.83
-1114058.2 -8895.9094 102827.45
-1183565.7 -2264.7985 73538.183
-1246516.2 -71.380448 53959.336
-1307348.4 985.82389 43883.256
-1366160.9 1258.4185 38931.414
-1422054.5 1262.5809 36418.648
-1474661.9 1281.0364 34969.769
-1524191 1270.4564 33894.477
-1570877.9 1386.9155 32814.102
-1614730.3 1673.9187 31561.651
-1655868.4 1990.8562 30201.069
-1694341 2569.2315 28763.903
-1730222.9 3757.3707 27213.554
-1763202 6108.8484 25691.268
-1792493 11011.13 24059.496
-1816869 21311.192 22276.861
-1833071.2 43020.773 20222.661
-1833738.6 88718.323 17620.106
-1797653.9 182155.1 12857.523
-1656136.4 323033.23 4935.9555
-1639025.6 343952.13 7829.3344
-1784052 199588.42 18624.61
-1816352.8 102943.34 23723.628
-1815909.4 55971.884 26821.276
-1800217.6 33444.627 29611.984
-1776710.9 22486.733 32144.398
-1748615.7 16860.318 34599.454
-1717184.4 13970.365 37016.24
-1682955.4 12289.07 39360.116
-1646281 11074.317 41696.145
-1607178.2 10263.407 44019.343
-1565648.2 9644.5424 46333.338
-1521508.6 9070.3324 48617.672
-1474762.8 8654.168 50985.319
-1425500.7 8363.2939 53626.931
-1373989.1 8171.3321 56883.964
-1321490 7982.4419 61345.816
-1271024.9 8745.7349 68750.802
-1219027.3 18801.641 82017.047
-1123525.2 62551.53 104035.7
-998836.37 41921.887 124796.39
-899490.62 25981.813 127899.98
-773946.85 31611.679 131494.56
-605019.09 -5948.9275 135531.42
-512378.31 -191050.55 154274.15
-539371.42 -229449.34 259599.61
-338680.13 -106323.22 85395.024
-1385549.1 534491.59 17212.391
-1391936.6 533155.55 19007.522
-318935.79 -197429.54 138529.46
-607219.68 -132698.17 95730.083
-768394.77 -74219.764 106590.5
-879290.49 -44205.051 110336.16
-960230.29 -17945.312 78053.892
-1041585.9 -6965.8508 60313.867
-1110348.9 -5510.831 46872.868
-1181887.8 -2423.827 30138.94
-1250875 -1353.3108 17613.787
-1315618.7 191.85664 10800.182
-1376157.1 -198.11759 8257.5958
-1431368.1 -414.36226 8173.9043
-1482650.5 -382.25822 8885.3053
-1530624.9 -415.93742 9719.088
-1575591.7 -349.01595 10239.794
-1617899.6 -149.13397 10414.266
-1657590.3 172.6533 10331.34
-1694738.3 774.69353 10097.263
-1729391.7 1960.1221 9602.8486
-1761423.6 4348.1394 9211.7649
-1789979.4 9260.8835 8682.4052
-1813485.2 19716.371 7987.8981
-1828647.6 41734.266 7191.5288
-1827300.7 87867.48 5951.9327
-1788491.4 181354.77 4196.5489
-1651161.6 320774.66 3707.5037
-1389549 521270.17 6525.5828
-1027485.9 -32335.291 134993.85
-1101162 -34450.042 110260.76
-1168428.5 -36647.924 80204.565
-1230273.8 -35173.402 60163.85
-1290021.4 -33372.689 49507.372
-1347838.5 -31141.097 44068.452
-1402802.6 -29449.47 40931.413
-1454981.4 -27984.844 38946.673
-1504319 -26652.634 37489.985
-1550721 -25238.797 36002.272
-1594517 -23688.939 34426.527
-1635906 -22078.583 32714.5
-1675031.4 -20238.939 30832.753
-1712122.7 -17983.135 28898.786
-1747173 -14629.267 26857.811
-1780787.7 -9322.3954 24661.941
-1813953.7 566.31104 22175.958
-1848613.1 19858.237 19362.027
-1888470.8 59735.588 15743.616
-1939322.9 145505.34 10328.12
-1971499.7 343203.99 867.69941
-1975503.3 378358.97 8782.2908
-1944846.2 157863.25 18230.692
-1897737 69190.722 23380.218
-1861236.5 27112.401 27234.908
-1829648.2 6262.4142 30554.768
-1799356.7 -4949.2714 33595.898
-1768460.9 -11436.944 36425.919
-1736157.3 -16009.641 39210.751
-1701708.6 -19411.273 41867.704
-1665097.4 -22267.784 44481.29
-1626294.4 -24840.869 47076.374
-1584983.3 -27384.241 49625.226
-1541100.5 -29809.112 52221.433
-1494614.3 -32108.054 54870.045
-1445632.9 -34528.513 57816.939
-1394682.5 -37324.679 61431.86
-1342931.8 -40263.13 66282.756
-1293322.2 -43605.35 73931.659
-1242668.3 -57683.684 86640.547
-1155180.4 -109355.29 108519.76
-1023277 -136011.36 129340.88
-924439.13 -126847.11 136402.05
-817034.85 -181666.95 135725.72
-683714.59 -237416.16 130239.91
-619596.9 -274213.14 137750.37
-625486.82 -484477.86 287029.55
-375082.3 -689511.01 85518.778
-1771353.3 744232.02 -3888.0446
-1778728.6 746293.59 2793.5055
-409744.1 -397289.54 130910.19
-709735.45 -149724.42 90667.99
-810376.75 -63744.607 108832.34
-895219.97 -33517.789 117392.97
-962850.78 -21593.298 84790.087
-1035647.8 -39094.235 63471.28
-1106659.4 -32204.824 50382.375
-1175832.5 -29447.838 32797.085
-1244361.5 -28252.002 19214.8
-1308965.1 -24961.044 13322.089
-1367781.3 -22582.31 10444.777
-1422601.2 -21428.829 9802.1473
-1473791.4 -20480.161 10236.856
-1521694.5 -19644.219 10924.541
-1566631.1 -18759.233 11347.645
-1608923.5 -17724.324 11438.807
-1648880.3 -16568.205 11286.424
-1686587.8 -15164.193 10865.573
-1722188.8 -13329.769 10345.089
-1756079.2 -10537.132 9782.8597
-1788739.5 -5560.0602 9050.3203
-1820855.4 3918.5666 8167.8397
-1854325.8 22869.347 7129.3077
-1892487.4 62550.215 5657.8591
-1940127.4 147776.93 3425.3744
-1969283.5 344198.15 516.89703
-1774334.3 737490.08 441.35381
-1003856.8 -59665.28 96892.768
-1091451.4 -63741.794 119700.44
-1199321.4 -65212.936 81226.694
-1265707.8 -62573.978 58376.955
-1326477.8 -59893.289 48532.634
-1384533.6 -56744.065 43433.582
-1439276.7 -54063.115 40359.204
-1491176.2 -51645.09 38393.993
-1540134.5 -49292.511 36880.689
-1586241.2 -46964.194 35519.663
-1629442.4 -44635.291 33905.397
-1669917.3 -42248.204 32161.425
-1708012 -39786.525 30354.355
-1743906.6 -37144.516 28286.618
-1777880.2 -34059.455 25997.695
-1810615.8 -30277.523 23548.472
-1843698.7 -24726.621 20751.512
-1880750.1 -15715.313 17450.983
-1929660.6 1035.0866 13081.038
-2008530.1 35661.219 6722.6019
-2170060.6 132820.61 -4173.362
-1871047.7 143426.76 12981.083
-1636424.2 34781.46 25196.482
-1505985.5 -3753.8306 32529.469
-1413380.5 -23295.378 38293.62
-1337049.1 -34622.972 43171.216
-1267412.1 -42175.448 47622.898
-1199958.2 -47818.918 51788.638
-1132664.6 -52735.531 55739.404
-1064456.3 -57191.582 59516.292
-994412.68 -61241.531 63146.172
-922219.42 -65283.624 66812.955
-847807.7 -69328.502 70448.301
-770855.19 -73328.227 74033.933
-691023.24 -77338.19 77650.747
-608604.55 -81534.09 81754.781
-524712.65 -86118.469 86629.581
-441627.54 -91022.636 93371.203
-365890.49 -96623.181 105037.21
-339736.74 -112841.5 140697.94
-454916.98 -165299.95 201846.33
-638577.55 -174998.76 182056.75
-697482.6 -155861.72 56233.857
-770202.68 -196674.5 94849.936
-923022.23 -220462.52 67077.337
-1002858.3 -202976.43 -82967.682
-906634.09 -378490.01 -558374.68
-393463.38 -559551.11 -705134.29
-2573028.8 420532.35 -33847.153
-2411622.2 433403.65 -18126.895
-1220236 -320041.67 -151039.67
-865738.72 -106316.36 -10911.285
-875453.83 -59194.069 27428.488
-919839.79 -49054.152 12335.463
-954993.51 -44055.952 35449.84
-1047276.7 -68631.288 79951.729
-1106843.9 -60567.706 39322.79
-1161877.3 -56376.206 31857.281
-1225309.9 -54339.395 8256.0565
-1291963.9 -50451.319 8345.2341
-1349366.6 -47323.979 7369.4139
-1404104.8 -45156.247 6759.8559
-1455842.9 -43188.961 7321.3227
-1504214.3 -41368.393 8075.3579
-1549564.2 -39495.292 8622.5521
-1592329.9 -37614.283 8985.6735
-1632607.5 -35682.411 8998.063
-1670700.1 -33634.36 8794.9217
-1706847.7 -31394.695 8438.8677