# vtk DataFile Version 2.0
Mesh3D
ASCII

DATASET UNSTRUCTURED_GRID
POINTS 4275 float
69.85  0  10.5
69.85  2.33647  10.2367
69.85  2.00269  8.77435
69.85  0  9
67.6609  0  10.5
67.6609  2.33647  10.2367
67.6609  2.00269  8.77435
67.6609  0  9
69.85  1.17563  10.434
69.85  2.16958  9.50555
69.85  1.00768  8.94341
69.85  0  9.75
68.7554  0  10.5
68.7554  2.33647  10.2367
68.7554  2.00269  8.77435
68.7554  0  9
67.6609  1.17563  10.434
67.6609  2.16958  9.50555
67.6609  1.00768  8.94341
67.6609  0  9.75
68.7554  1.09165  9.68869
69.85  1.09165  9.68869
67.6609  1.09165  9.68869
68.7554  0  9.75
68.7554  2.16958  9.50555
68.7554  1.17563  10.434
68.7554  1.00768  8.94341
69.85  4.55578  9.46017
69.85  3.90495  8.10872
67.6609  4.55578  9.46017
67.6609  3.90495  8.10872
69.85  3.46793  9.91077
69.85  4.23037  8.78445
69.85  2.97251  8.49495
68.7554  4.55578  9.46017
68.7554  3.90495  8.10872
67.6609  3.46793  9.91077
67.6609  4.23037  8.78445
67.6609  2.97251  8.49495
68.7554  3.22022  9.20286
69.85  3.22022  9.20286
67.6609  3.22022  9.20286
68.7554  4.23037  8.78445
68.7554  3.46793  9.91077
68.7554  2.97251  8.49495
69.85  6.54664  8.20923
69.85  5.61141  7.03648
67.6609  6.54664  8.20923
67.6609  5.61141  7.03648
69.85  5.58634  8.8906
69.85  6.07903  7.62286
69.85  4.78829  7.62052
68.7554  6.54664  8.20923
68.7554  5.61141  7.03648
67.6609  5.58634  8.8906
67.6609  6.07903  7.62286
67.6609  4.78829  7.62052
68.7554  5.18731  8.25556
69.85  5.18731  8.25556
67.6609  5.18731  8.25556
68.7554  6.07903  7.62286
68.7554  5.58634  8.8906
68.7554  4.78829  7.62052
69.85  8.20923  6.54664
69.85  7.03648  5.61141
67.6609  8.20923  6.54664
67.6609  7.03648  5.61141
69.85  7.42462  7.42462
69.85  7.62286  6.07903
69.85  6.36396  6.36396
68.7554  8.20923  6.54664
68.7554  7.03648  5.61141
67.6609  7.42462  7.42462
67.6609  7.62286  6.07903
67.6609  6.36396  6.36396
68.7554  6.89429  6.89429
69.85  6.89429  6.89429
67.6609  6.89429  6.89429
68.7554  7.62286  6.07903
68.7554  7.42462  7.42462
68.7554  6.36396  6.36396
69.85  9.46017  4.55578
69.85  8.10872  3.90495
67.6609  9.46017  4.55578
67.6609  8.10872  3.90495
69.85  8.8906  5.58634
69.85  8.78445  4.23037
69.85  7.62052  4.78829
68.7554  9.46017  4.55578
68.7554  8.10872  3.90495
67.6609  8.8906  5.58634
67.6609  8.78445  4.23037
67.6609  7.62052  4.78829
68.7554  8.25556  5.18731
69.85  8.25556  5.18731
67.6609  8.25556  5.18731
68.7554  8.78445  4.23037
68.7554  8.8906  5.58634
68.7554  7.62052  4.78829
69.85  10.2367  2.33647
69.85  8.77435  2.00269
67.6609  10.2367  2.33647
67.6609  8.77435  2.00269
69.85  9.91077  3.46793
69.85  9.50555  2.16958
69.85  8.49495  2.97251
68.7554  10.2367  2.33647
68.7554  8.77435  2.00269
67.6609  9.91077  3.46793
67.6609  9.50555  2.16958
67.6609  8.49495  2.97251
68.7554  9.20286  3.22022
69.85  9.20286  3.22022
67.6609  9.20286  3.22022
68.7554  9.50555  2.16958
68.7554  9.91077  3.46793
68.7554  8.49495  2.97251
69.85  10.5  0
69.85  9  0
67.6609  10.5  0
67.6609  9  0
69.85  10.434  1.17563
69.85  9.75  0
69.85  8.94341  1.00768
68.7554  10.5  0
68.7554  9  0
67.6609  10.434  1.17563
67.6609  9.75  0
67.6609  8.94341  1.00768
68.7554  9.68869  1.09165
69.85  9.68869  1.09165
67.6609  9.68869  1.09165
68.7554  9.75  0
68.7554  10.434  1.17563
68.7554  8.94341  1.00768
65.4717  0  10.5
65.4717  2.33647  10.2367
65.4717  2.00269  8.77435
65.4717  0  9
66.5663  0  10.5
66.5663  2.33647  10.2367
66.5663  2.00269  8.77435
66.5663  0  9
65.4717  1.17563  10.434
65.4717  2.16958  9.50555
65.4717  1.00768  8.94341
65.4717  0  9.75
66.5663  1.09165  9.68869
65.4717  1.09165  9.68869
66.5663  0  9.75
66.5663  2.16958  9.50555
66.5663  1.17563  10.434
66.5663  1.00768  8.94341
65.4717  4.55578  9.46017
65.4717  3.90495  8.10872
66.5663  4.55578  9.46017
66.5663  3.90495  8.10872
65.4717  3.46793  9.91077
65.4717  4.23037  8.78445
65.4717  2.97251  8.49495
66.5663  3.22022  9.20286
65.4717  3.22022  9.20286
66.5663  4.23037  8.78445
66.5663  3.46793  9.91077
66.5663  2.97251  8.49495
65.4717  6.54664  8.20923
65.4717  5.61141  7.03648
66.5663  6.54664  8.20923
66.5663  5.61141  7.03648
65.4717  5.58634  8.8906
65.4717  6.07903  7.62286
65.4717  4.78829  7.62052
66.5663  5.18731  8.25556
65.4717  5.18731  8.25556
66.5663  6.07903  7.62286
66.5663  5.58634  8.8906
66.5663  4.78829  7.62052
65.4717  8.20923  6.54664
65.4717  7.03648  5.61141
66.5663  8.20923  6.54664
66.5663  7.03648  5.61141
65.4717  7.42462  7.42462
65.4717  7.62286  6.07903
65.4717  6.36396  6.36396
66.5663  6.89429  6.89429
65.4717  6.89429  6.89429
66.5663  7.62286  6.07903
66.5663  7.42462  7.42462
66.5663  6.36396  6.36396
65.4717  9.46017  4.55578
65.4717  8.10872  3.90495
66.5663  9.46017  4.55578
66.5663  8.10872  3.90495
65.4717  8.8906  5.58634
65.4717  8.78445  4.23037
65.4717  7.62052  4.78829
66.5663  8.25556  5.18731
65.4717  8.25556  5.18731
66.5663  8.78445  4.23037
66.5663  8.8906  5.58634
66.5663  7.62052  4.78829
65.4717  10.2367  2.33647
65.4717  8.77435  2.00269
66.5663  10.2367  2.33647
66.5663  8.77435  2.00269
65.4717  9.91077  3.46793
65.4717  9.50555  2.16958
65.4717  8.49495  2.97251
66.5663  9.20286  3.22022
65.4717  9.20286  3.22022
66.5663  9.50555  2.16958
66.5663  9.91077  3.46793
66.5663  8.49495  2.97251
65.4717  10.5  0
65.4717  9  0
66.5663  10.5  0
66.5663  9  0
65.4717  10.434  1.17563
65.4717  9.75  0
65.4717  8.94341  1.00768
66.5663  9.68869  1.09165
65.4717  9.68869  1.09165
66.5663  9.75  0
66.5663  10.434  1.17563
66.5663  8.94341  1.00768
63.2826  0  10.5
63.2826  2.33647  10.2367
63.2826  2.00269  8.77435
63.2826  0  9
64.3772  0  10.5
64.3772  2.33647  10.2367
64.3772  2.00269  8.77435
64.3772  0  9
63.2826  1.17563  10.434
63.2826  2.16958  9.50555
63.2826  1.00768  8.94341
63.2826  0  9.75
64.3772  1.09165  9.68869
63.2826  1.09165  9.68869
64.3772  0  9.75
64.3772  2.16958  9.50555
64.3772  1.17563  10.434
64.3772  1.00768  8.94341
63.2826  4.55578  9.46017
63.2826  3.90495  8.10872
64.3772  4.55578  9.46017
64.3772  3.90495  8.10872
63.2826  3.46793  9.91077
63.2826  4.23037  8.78445
63.2826  2.97251  8.49495
64.3772  3.22022  9.20286
63.2826  3.22022  9.20286
64.3772  4.23037  8.78445
64.3772  3.46793  9.91077
64.3772  2.97251  8.49495
63.2826  6.54664  8.20923
63.2826  5.61141  7.03648
64.3772  6.54664  8.20923
64.3772  5.61141  7.03648
63.2826  5.58634  8.8906
63.2826  6.07903  7.62286
63.2826  4.78829  7.62052
64.3772  5.18731  8.25556
63.2826  5.18731  8.25556
64.3772  6.07903  7.62286
64.3772  5.58634  8.8906
64.3772  4.78829  7.62052
63.2826  8.20923  6.54664
63.2826  7.03648  5.61141
64.3772  8.20923  6.54664
64.3772  7.03648  5.61141
63.2826  7.42462  7.42462
63.2826  7.62286  6.07903
63.2826  6.36396  6.36396
64.3772  6.89429  6.89429
63.2826  6.89429  6.89429
64.3772  7.62286  6.07903
64.3772  7.42462  7.42462
64.3772  6.36396  6.36396
63.2826  9.46017  4.55578
63.2826  8.10872  3.90495
64.3772  9.46017  4.55578
64.3772  8.10872  3.90495
63.2826  8.8906  5.58634
63.2826  8.78445  4.23037
63.2826  7.62052  4.78829
64.3772  8.25556  5.18731
63.2826  8.25556  5.18731
64.3772  8.78445  4.23037
64.3772  8.8906  5.58634
64.3772  7.62052  4.78829
63.2826  10.2367  2.33647
63.2826  8.77435  2.00269
64.3772  10.2367  2.33647
64.3772  8.77435  2.00269
63.2826  9.91077  3.46793
63.2826  9.50555  2.16958
63.2826  8.49495  2.97251
64.3772  9.20286  3.22022
63.2826  9.20286  3.22022
64.3772  9.50555  2.16958
64.3772  9.91077  3.46793
64.3772  8.49495  2.97251
63.2826  10.5  0
63.2826  9  0
64.3772  10.5  0
64.3772  9  0
63.2826  10.434  1.17563
63.2826  9.75  0
63.2826  8.94341  1.00768
64.3772  9.68869  1.09165
63.2826  9.68869  1.09165
64.3772  9.75  0
64.3772  10.434  1.17563
64.3772  8.94341  1.00768
61.0935  0  10.5
61.0935  2.33647  10.2367
61.0935  2.00269  8.77435
61.0935  0  9
62.188  0  10.5
62.188  2.33647  10.2367
62.188  2.00269  8.77435
62.188  0  9
61.0935  1.17563  10.434
61.0935  2.16958  9.50555
61.0935  1.00768  8.94341
61.0935  0  9.75
62.188  1.09165  9.68869
61.0935  1.09165  9.68869
62.188  0  9.75
62.188  2.16958  9.50555
62.188  1.17563  10.434
62.188  1.00768  8.94341
61.0935  4.55578  9.46017
61.0935  3.90495  8.10872
62.188  4.55578  9.46017
62.188  3.90495  8.10872
61.0935  3.46793  9.91077
61.0935  4.23037  8.78445
61.0935  2.97251  8.49495
62.188  3.22022  9.20286
61.0935  3.22022  9.20286
62.188  4.23037  8.78445
62.188  3.46793  9.91077
62.188  2.97251  8.49495
61.0935  6.54664  8.20923
61.0935  5.61141  7.03648
62.188  6.54664  8.20923
62.188  5.61141  7.03648
61.0935  5.58634  8.8906
61.0935  6.07903  7.62286
61.0935  4.78829  7.62052
62.188  5.18731  8.25556
61.0935  5.18731  8.25556
62.188  6.07903  7.62286
62.188  5.58634  8.8906
62.188  4.78829  7.62052
61.0935  8.20923  6.54664
61.0935  7.03648  5.61141
62.188  8.20923  6.54664
62.188  7.03648  5.61141
61.0935  7.42462  7.42462
61.0935  7.62286  6.07903
61.0935  6.36396  6.36396
62.188  6.89429  6.89429
61.0935  6.89429  6.89429
62.188  7.62286  6.07903
62.188  7.42462  7.42462
62.188  6.36396  6.36396
61.0935  9.46017  4.55578
61.0935  8.10872  3.90495
62.188  9.46017  4.55578
62.188  8.10872  3.90495
61.0935  8.8906  5.58634
61.0935  8.78445  4.23037
61.0935  7.62052  4.78829
62.188  8.25556  5.18731
61.0935  8.25556  5.18731
62.188  8.78445  4.23037
62.188  8.8906  5.58634
62.188  7.62052  4.78829
61.0935  10.2367  2.33647
61.0935  8.77435  2.00269
62.188  10.2367  2.33647
62.188  8.77435  2.00269
61.0935  9.91077  3.46793
61.0935  9.50555  2.16958
61.0935  8.49495  2.97251
62.188  9.20286  3.22022
61.0935  9.20286  3.22022
62.188  9.50555  2.16958
62.188  9.91077  3.46793
62.188  8.49495  2.97251
61.0935  10.5  0
61.0935  9  0
62.188  10.5  0
62.188  9  0
61.0935  10.434  1.17563
61.0935  9.75  0
61.0935  8.94341  1.00768
62.188  9.68869  1.09165
61.0935  9.68869  1.09165
62.188  9.75  0
62.188  10.434  1.17563
62.188  8.94341  1.00768
58.9043  0  10.5
58.9043  2.33647  10.2367
58.9043  2.00269  8.77435
58.9043  0  9
[...]
CELL_DATA 329
VECTORS current_real float
1183.9666 0.21305568 8.3196715
1188.7838 1.7828817 8.1602372
1188.5738 4.092808 7.2204214
1188.5564 5.8627834 5.8627834
1188.5738 7.2204214 4.092808
1188.7838 8.1602372 1.7828817
1183.9666 8.3196715 0.21305568
1208.1752 0.80895523 9.1776557
1214.4013 2.6509833 8.8304777
1214.0685 4.6850726 7.9339592
1214.0084 6.512796 6.512796
1214.0685 7.9339592 4.6850726
1214.4013 8.8304777 2.6509833
1208.1752 9.1776557 0.80895523
1234.3575 0.92165587 9.12251
1240.9571 2.8378889 8.7203964
1240.7683 4.7649888 7.8339371
1240.7242 6.4829706 6.4829706
1240.7683 7.8339371 4.7649888
1240.9571 8.7203964 2.8378889
1234.3575 9.12251 0.92165587
1260.4176 0.93317862 8.9114726
1267.2192 2.8407503 8.4985948
1267.0985 4.7024093 7.6271312
1267.0786 6.3356092 6.3356092
1267.0985 7.6271312 4.7024093
1267.2192 8.4985948 2.8407503
1260.4176 8.9114726 0.93317862
1285.8566 0.91602612 8.630881
1292.8186 2.7773178 8.2233566
1292.7236 4.5732357 7.3767387
1292.7154 6.1370991 6.1370991
1292.7236 7.3767387 4.5732357
1292.8186 8.2233566 2.7773178
1285.8566 8.630881 0.91602612
1310.4752 0.88753635 8.318457
1317.5793 2.6868099 7.9227321
1317.4935 4.4150624 7.1057047
1317.4901 5.9153199 5.9153199
1317.4935 7.1057047 4.4150624
1317.5793 7.9227321 2.6868099
1310.4752 8.318457 0.88753635
1334.1821 0.85435417 7.9906283
1341.4182 2.5847956 7.609358
1341.3352 4.243926 6.8241135
1341.3336 5.6823427 5.6823427
1341.3352 6.8241135 4.243926
1341.4182 7.609358 2.5847957
1334.1821 7.9906283 0.85435417
1356.9344 0.81922886 7.6556624
1364.2952 2.4779322 7.2899356
1364.2126 4.0671259 6.5374463
1364.2117 5.4441955 5.4441955
1364.2126 6.5374463 4.0671259
1364.2952 7.2899356 2.4779322
1356.9344 7.6556624 0.81922886
1378.713 0.78336267 7.3180437
1386.1925 2.3692236 6.9682777
1386.1093 3.8881871 6.2489107
1386.1087 5.2041249 5.2041249
1386.1093 6.2489107 3.8881871
1386.1925 6.9682777 2.3692236
1378.713 7.3180437 0.78336267
1399.5116 0.74730888 6.9803172
1407.1042 2.260099 6.6466296
1407.0199 3.7089085 5.960437
1407.0195 4.9639635 4.9639635
1407.0199 5.960437 3.7089085
1407.1042 6.6466296 2.260099
1399.5116 6.9803172 0.74730888
1419.3307 0.71133431 6.643957
1427.031 2.1512711 6.3263253
1426.9457 3.5302474 5.673189
1426.9453 4.7247682 4.7247682
1426.9457 5.673189 3.5302474
1427.031 6.3263253 2.1512711
1419.3307 6.643957 0.71133431
1438.1751 0.67557219 6.3098118
1445.9777 2.0431064 6.0081461
1445.8914 3.3527228 5.3878544
1445.891 4.487146 4.487146
1445.8914 5.3878544 3.3527228
1445.9777 6.0081461 2.0431064
1438.1751 6.3098118 0.67557219
1456.0515 0.64008961 5.9783505
1463.9512 1.9357933 5.6925276
1463.8638 3.1766112 5.1048187
1463.8635 4.2514319 4.2514319
1463.8638 5.1048187 3.1766112
1463.9512 5.6925276 1.9357933
1456.0515 5.9783505 0.64008961
1472.9679 0.6049194 5.6498043
1480.9595 1.8294244 5.3796849
1480.8711 3.0020484 4.8242724
1480.8708 4.0177908 4.0177908
1480.8711 4.8242724 3.0020484
1480.9595 5.3796849 1.8294244
1472.9679 5.6498043 0.6049194
1488.9329 0.5700775 5.3242526
1497.0111 1.7240414 5.0696885
1496.9218 2.8290886 4.5462764
1496.9214 3.7862797 3.7862797
1496.9218 4.5462764 2.8290886
1497.0111 5.0696885 1.7240414
1488.9329 5.3242526 0.5700775
1503.9551 0.53557582 5.0016753
1512.1148 1.6196682 4.7625108
1512.0245 2.6577434 4.2708018
1512.0242 3.5568857 3.5568857
1512.0245 4.2708018 2.6577434
1512.1148 4.7625108 1.6196682
1503.9551 5.0016753 0.53557582
1518.0431 0.50143919 4.6819863
1526.2791 1.5163498 4.458048
1526.1879 2.488021 3.9977456
1526.1874 3.3295502 3.3295502
1526.1879 3.9977456 2.488021
1526.2791 4.458048 1.5163498
1518.0431 4.6819863 0.50143919
1531.2053 0.46773965 4.3650521
1539.5124 1.4142279 4.1561187
1539.4199 2.3199855 3.7269204
1539.4192 3.1041851 3.1041851
1539.4199 3.7269204 2.3199855
1539.5124 4.1561187 1.4142279
1531.2053 4.3650521 0.46773965
1543.4501 0.43468049 4.0506971
1551.8227 1.3137161 3.8564175
1551.7282 2.1538844 3.4579917
1551.727 2.8806831 2.8806831
1551.7282 3.4579917 2.1538844
1551.8227 3.8564175 1.3137161
1543.4501 4.0506971 0.43468049
1554.7862 0.40282432 3.7386877
1563.2176 1.2159482 3.5583686
1563.1192 1.9904366 3.1903085
1563.1167 2.6589251 2.6589251
1563.1192 3.1903085 1.9904366
1563.2176 3.5583686 1.2159482
1554.7862 3.7386877 0.40282432
1565.224 0.37381335 3.428658
1573.7043 1.1239917 3.2607085
1573.5976 1.831398 2.9225551
1573.5923 2.4387839 2.4387839
1573.5976 2.9225551 1.831398
1573.7043 3.2607085 1.1239917
1565.224 3.428658 0.37381335
1574.7816 0.3539497 3.1197156
1583.2865 1.046849 2.9600944
1583.1631 1.679574 2.6527527
1583.1557 2.2201294 2.2201294
1583.1631 2.6527527 1.679574
1583.2865 2.9600944 1.046849
1574.7816 3.1197156 0.3539497
1583.5139 0.37404112 2.8080808
1591.9283 1.0094695 2.6474622
1591.8148 1.5296636 2.3838521
1591.8109 2.0027341 2.0027341
1591.8148 2.3838521 1.5296636
1591.9283 2.6474622 1.0094695
1583.5139 2.8080808 0.37404112
512.19498 1.5616567 14.828309
512.43514 4.733274 14.139922
512.53993 7.8222677 12.693702
512.58639 10.542802 10.542802
512.53993 12.693702 7.8222677
512.43514 14.139922 4.733274
512.19498 14.828309 1.5616567
491.60522 1.4938536 13.704559
491.68317 4.4593114 13.044878
491.7188 7.2767522 11.708855
491.74582 9.747914 9.747914
491.7188 11.708855 7.2767522
491.68317 13.044878 4.4593114
491.60522 13.704559 1.4938536
471.1971 1.5797336 14.180661
471.2139 4.6757752 13.480558
471.20715 7.565893 12.097286
471.22257 10.089254 10.089254
471.20715 12.097286 7.565893
471.2139 13.480558 4.6757752
471.1971 14.180661 1.5797336
449.88648 1.6592592 14.786178
449.88445 4.9001996 14.048952
449.85802 7.9060886 12.604689
449.86534 10.521032 10.521032
449.85802 12.604689 7.9060886
449.88445 14.048952 4.9001996
449.88648 14.786178 1.6592592
427.49877 1.7461995 15.516485
427.4903 5.1527293 14.739767
427.45674 8.3041303 13.223172
427.46012 11.041079 11.041079
427.45674 13.223172 8.3041303
427.4903 14.739767 5.1527293
427.49877 15.516485 1.7461995
403.83997 1.8421722 16.349796
403.83004 5.4340797 15.530008
403.79491 8.7534417 13.931517
403.79661 11.634215 11.634215
403.79491 13.931517 8.7534417
403.83004 15.530008 5.4340797
403.83997 16.349796 1.8421722
378.68018 1.9492912 17.290513
378.67122 5.7490428 16.422885
378.63708 9.2587038 14.732229
378.63812 12.303703 12.303703
378.63708 14.732229 9.2587038
378.67122 16.422885 5.7490428
378.68018 17.290513 1.9492912
351.70179 2.0700929 18.354575
351.69556 6.1044332 17.433096
351.66373 9.8295123 15.638322
351.66461 13.060943 13.060943
351.66373 15.638322 9.8295123
351.69556 17.433096 6.1044332
351.70179 18.354575 2.0700929
322.4243 2.2083744 19.571499
322.42295 6.5109232 18.588433
322.39429 10.482199 16.674677
322.39521 13.926977 13.926977
322.39429 16.674677 10.482199
322.42295 18.588433 6.5109232
322.4243 19.571499 2.2083744
290.06063 2.3705741 20.993826
290.06795 6.9866721 19.938618
290.04293 11.24511 17.885996
290.04375 14.939233 14.939233
290.04293 17.885996 11.24511
290.06795 19.938618 6.9866721
290.06063 20.993826 2.3705741
253.12139 2.5774144 22.796068
253.14596 7.5902892 21.649334
253.12298 12.211147 19.421459
253.12277 16.221978 16.221978
253.12298 19.421459 12.211147
253.14596 21.649334 7.5902892
253.12139 22.796068 2.5774144
209.21968 2.8042593 24.761155
209.27927 8.2472002 23.515185
209.2491 13.261756 21.097507
209.24708 17.620712 17.620712
209.2491 21.097507 13.261756
209.27927 23.515185 8.2472002
209.21968 24.761155 2.8042593
136.98923 4.3363446 38.690257
137.03036 12.835629 36.75588
137.01166 20.71228 32.965837
137.01018 27.529486 27.529486
137.01166 32.965837 20.71228
137.03036 36.75588 12.835629
136.98923 38.690257 4.3363446
916.42595 221.86164 24.222378
617.68968 160.14208 17.836422
918.39032 211.42934 72.891548
618.26007 152.34892 52.893244
918.6295 189.58614 118.72961
618.50734 136.72932 85.626109
918.67104 158.18323 158.18323
618.56382 114.08554 114.08554
918.6295 118.72961 189.58614
618.50734 85.626109 136.72932
918.39032 72.891548 211.42934
618.26007 52.893244 152.34892
916.42595 24.222378 221.86164
617.68968 17.836422 160.14208
1591.3809 2.5053467 0.34523811
1598.2788 2.2133376 0.24986709
1604.2534 1.9154117 0.21791114
1609.3677 1.6190186 0.18240549
1613.6309 1.3224982 0.15663643
1617.0696 1.0250998 0.1456655
1619.7442 0.72342218 0.17813682
1621.8313 0.40729527 0.34268432
1624.0916 0.022137509 1.1272719
1599.5978 2.3584968 0.91474004
1606.4034 2.0985318 0.74679506
1612.3881 1.8175431 0.64255443
1617.5074 1.5362031 0.54278624
1621.7739 1.2500322 0.459743
1625.1886 0.95466473 0.40536511
1627.7406 0.63550214 0.42085253
1629.331 0.25797564 0.60444215
1629.0938 -0.27251542 1.2257574
1599.5298 2.1258327 1.3688329
1606.3422 1.8778579 1.1980344
1612.3052 1.6289124 1.0310164
1617.4133 1.3755231 0.87322354
1621.6594 1.1170824 0.72528314
1625.0323 0.8481223 0.59556531
1627.5028 0.55907835 0.49895675
1629.0016 0.24885079 0.43683741
1629.6012 0.043262938 0.20833788
1599.5332 1.7877466 1.7877466
1606.3481 1.5750244 1.5750244
1612.3077 1.3631426 1.3631426
1617.4104 1.1520704 1.1520704
1621.6485 0.94168053 0.94168053
1625.0063 0.73184762 0.73184762
1627.4573 0.52244264 0.52244264
1628.995 0.3133187 0.3133187
1629.7 0.10426242 0.10426242
1599.5298 1.3688329 2.1258327
1606.3422 1.1980344 1.8778579
1612.3052 1.0310164 1.6289124
1617.4133 0.87322354 1.3755231
1621.6594 0.72528314 1.1170824
1625.0323 0.59556531 0.8481223
1627.5028 0.49895675 0.55907835
1629.0016 0.43683741 0.24885079
1629.6012 0.20833788 0.043262938
1599.5978 0.91474004 2.3584968
1606.4034 0.74679506 2.0985318
1612.3881 0.64255443 1.8175431
1617.5074 0.54278624 1.5362031
1621.7739 0.459743 1.2500322
1625.1886 0.40536511 0.95466473
1627.7406 0.42085253 0.63550214
1629.331 0.60444215 0.25797564
1629.0938 1.2257574 -0.27251542
1591.3809 0.34523811 2.5053467
1598.2788 0.24986709 2.2133376
1604.2534 0.21791114 1.9154117
1609.3677 0.18240549 1.6190186
1613.6309 0.15663643 1.3224982
1617.0696 0.1456655 1.0250998
1619.7442 0.17813682 0.72342218
1621.8313 0.34268432 0.40729527
1624.0916 1.1272719 0.022137509
SCALARS topo_ids float 1
LOOKUP_TABLE default
0
1
2
3
4
5
6
7
8
9
10
11
12
13
14
15
16
17
18
19
20
21
22
23
24
25
26
27
28
29
30
31
32
33
34
35
36
37
38
39
40
41
42
43
44
45
46
47
48
49
50
51
52
53
54
55
56
57
58
59
60
61
62
63
64
65
66
67
68
69
70
71
72
73
74
75
76
77
78
79
80
81
82
83
84
85
86
87
88
89
90
91
92
93
94
95
96
97
98
99
100
101
102
103
104
105
106
107
108
109
110
111
112
113
114
115
116
117
118
119
120
121
122
123
124
125
126
127
128
129
130
131
132
133
134
135
136
137
138
139
140
141
142
143
144
145
146
147
148
149
150
151
152
153
154
155
156
157
158
159
160
161
162
163
164
165
166
167
168
169
170
171
172
173
174
175
176
177
178
179
180
181
182
183
184
185
186
187
188
189
190
191
192
193
194
195
196
197
198
199
200
201
202
203
204
205
206
207
208
209
210
211
212
213
214
215
216
217
218
219
220
221
222
223
224
225
226
227
228
229
230
231
232
233
234
235
236
237
238
239
240
241
242
243
244
245
246
247
248
249
250
251
252
253
254
255
256
257
258
259
260
261
262
263
264
265
266
267
268
269
270
271
272
273
274
275
276
277
278
279
280
281
282
283
284
285
286
287
288
289
290
291
292
293
294
295
296
297
298
299
300
301
302
303
304
305
306
307
308
309
310
311
312
313
314
315
316
317
318
319
320
321
322
323
324
325
326
327
328
