# vtk DataFile Version 2.0
Mesh3D
ASCII

DATASET UNSTRUCTURED_GRID
POINTS 4980 float
2.875  -0.354  0
2.875  -0.286392  -0.208076
2.875  -0.334124  -0.242755
2.875  -0.413  0
2.68345  -0.354  0
2.68345  -0.286392  -0.208076
2.68345  -0.334124  -0.242755
2.68345  -0.413  0
2.875  -0.336674  -0.109392
2.875  -0.310258  -0.225416
2.875  -0.392786  -0.127624
2.875  -0.3835  0
2.77923  -0.354  0
2.77923  -0.286392  -0.208076
2.77923  -0.334124  -0.242755
2.77923  -0.413  0
2.68345  -0.336674  -0.109392
2.68345  -0.310258  -0.225416
2.68345  -0.392786  -0.127624
2.68345  -0.3835  0
2.77923  -0.36473  -0.118508
2.875  -0.36473  -0.118508
2.68345  -0.36473  -0.118508
2.77923  -0.3835  0
2.77923  -0.310258  -0.225416
2.77923  -0.336674  -0.109392
2.77923  -0.392786  -0.127624
2.875  -0.109392  -0.336674
2.875  -0.127624  -0.392786
2.68345  -0.109392  -0.336674
2.68345  -0.127624  -0.392786
2.875  -0.208076  -0.286392
2.875  -0.118508  -0.36473
2.875  -0.242755  -0.334124
2.77923  -0.109392  -0.336674
2.77923  -0.127624  -0.392786
2.68345  -0.208076  -0.286392
2.68345  -0.118508  -0.36473
2.68345  -0.242755  -0.334124
2.77923  -0.225416  -0.310258
2.875  -0.225416  -0.310258
2.68345  -0.225416  -0.310258
2.77923  -0.118508  -0.36473
2.77923  -0.208076  -0.286392
2.77923  -0.242755  -0.334124
2.875  0.109392  -0.336674
2.875  0.127624  -0.392786
2.68345  0.109392  -0.336674
2.68345  0.127624  -0.392786
2.875  0  -0.354
2.875  0.118508  -0.36473
2.875  0  -0.413
2.77923  0.109392  -0.336674
2.77923  0.127624  -0.392786
2.68345  0  -0.354
2.68345  0.118508  -0.36473
2.68345  0  -0.413
2.77923  0  -0.3835
2.875  0  -0.3835
2.68345  0  -0.3835
2.77923  0.118508  -0.36473
2.77923  0  -0.354
2.77923  0  -0.413
2.875  0.286392  -0.208076
2.875  0.334124  -0.242755
2.68345  0.286392  -0.208076
2.68345  0.334124  -0.242755
2.875  0.208076  -0.286392
2.875  0.310258  -0.225416
2.875  0.242755  -0.334124
2.77923  0.286392  -0.208076
2.77923  0.334124  -0.242755
2.68345  0.208076  -0.286392
2.68345  0.310258  -0.225416
2.68345  0.242755  -0.334124
2.77923  0.225416  -0.310258
2.875  0.225416  -0.310258
2.68345  0.225416  -0.310258
2.77923  0.310258  -0.225416
2.77923  0.208076  -0.286392
2.77923  0.242755  -0.334124
2.875  0.354  0
2.875  0.413  0
2.68345  0.354  0
2.68345  0.413  0
2.875  0.336674  -0.109392
2.875  0.3835  0
2.875  0.392786  -0.127624
2.77923  0.354  0
2.77923  0.413  0
2.68345  0.336674  -0.109392
2.68345  0.3835  0
2.68345  0.392786  -0.127624
2.77923  0.36473  -0.118508
2.875  0.36473  -0.118508
2.68345  0.36473  -0.118508
2.77923  0.3835  0
2.77923  0.336674  -0.109392
2.77923  0.392786  -0.127624
2.49191  -0.354  0
2.49191  -0.286392  -0.208076
2.49191  -0.334124  -0.242755
2.49191  -0.413  0
2.58768  -0.354  0
2.58768  -0.286392  -0.208076
2.58768  -0.334124  -0.242755
2.58768  -0.413  0
2.49191  -0.336674  -0.109392
2.49191  -0.310258  -0.225416
2.49191  -0.392786  -0.127624
2.49191  -0.3835  0
2.58768  -0.36473  -0.118508
2.49191  -0.36473  -0.118508
2.58768  -0.3835  0
2.58768  -0.310258  -0.225416
2.58768  -0.336674  -0.109392
2.58768  -0.392786  -0.127624
2.49191  -0.109392  -0.336674
2.49191  -0.127624  -0.392786
2.58768  -0.109392  -0.336674
2.58768  -0.127624  -0.392786
2.49191  -0.208076  -0.286392
2.49191  -0.118508  -0.36473
2.49191  -0.242755  -0.334124
2.58768  -0.225416  -0.310258
2.49191  -0.225416  -0.310258
2.58768  -0.118508  -0.36473
2.58768  -0.208076  -0.286392
2.58768  -0.242755  -0.334124
2.49191  0.109392  -0.336674
2.49191  0.127624  -0.392786
2.58768  0.109392  -0.336674
2.58768  0.127624  -0.392786
2.49191  0  -0.354
2.49191  0.118508  -0.36473
2.49191  0  -0.413
2.58768  0  -0.3835
2.49191  0  -0.3835
2.58768  0.118508  -0.36473
2.58768  0  -0.354
2.58768  0  -0.413
2.49191  0.286392  -0.208076
2.49191  0.334124  -0.242755
2.58768  0.286392  -0.208076
2.58768  0.334124  -0.242755
2.49191  0.208076  -0.286392
2.49191  0.310258  -0.225416
2.49191  0.242755  -0.334124
2.58768  0.225416  -0.310258
2.49191  0.225416  -0.310258
2.58768  0.310258  -0.225416
2.58768  0.208076  -0.286392
2.58768  0.242755  -0.334124
2.49191  0.354  0
2.49191  0.413  0
2.58768  0.354  0
2.58768  0.413  0
2.49191  0.336674  -0.109392
2.49191  0.3835  0
2.49191  0.392786  -0.127624
2.58768  0.36473  -0.118508
2.49191  0.36473  -0.118508
2.58768  0.3835  0
2.58768  0.336674  -0.109392
2.58768  0.392786  -0.127624
2.30036  -0.354  0
2.30036  -0.286392  -0.208076
2.30036  -0.334124  -0.242755
2.30036  -0.413  0
2.39614  -0.354  0
2.39614  -0.286392  -0.208076
2.39614  -0.334124  -0.242755
2.39614  -0.413  0
2.30036  -0.336674  -0.109392
2.30036  -0.310258  -0.225416
2.30036  -0.392786  -0.127624
2.30036  -0.3835  0
2.39614  -0.36473  -0.118508
2.30036  -0.36473  -0.118508
2.39614  -0.3835  0
2.39614  -0.310258  -0.225416
2.39614  -0.336674  -0.109392
2.39614  -0.392786  -0.127624
2.30036  -0.109392  -0.336674
2.30036  -0.127624  -0.392786
2.39614  -0.109392  -0.336674
2.39614  -0.127624  -0.392786
2.30036  -0.208076  -0.286392
2.30036  -0.118508  -0.36473
2.30036  -0.242755  -0.334124
2.39614  -0.225416  -0.310258
2.30036  -0.225416  -0.310258
2.39614  -0.118508  -0.36473
2.39614  -0.208076  -0.286392
2.39614  -0.242755  -0.334124
2.30036  0.109392  -0.336674
2.30036  0.127624  -0.392786
2.39614  0.109392  -0.336674
2.39614  0.127624  -0.392786
2.30036  0  -0.354
2.30036  0.118508  -0.36473
2.30036  0  -0.413
2.39614  0  -0.3835
2.30036  0  -0.3835
2.39614  0.118508  -0.36473
2.39614  0  -0.354
2.39614  0  -0.413
2.30036  0.286392  -0.208076
2.30036  0.334124  -0.242755
2.39614  0.286392  -0.208076
2.39614  0.334124  -0.242755
2.30036  0.208076  -0.286392
2.30036  0.310258  -0.225416
2.30036  0.242755  -0.334124
2.39614  0.225416  -0.310258
2.30036  0.225416  -0.310258
2.39614  0.310258  -0.225416
2.39614  0.208076  -0.286392
2.39614  0.242755  -0.334124
2.30036  0.354  0
2.30036  0.413  0
2.39614  0.354  0
2.39614  0.413  0
2.30036  0.336674  -0.109392
2.30036  0.3835  0
2.30036  0.392786  -0.127624
2.39614  0.36473  -0.118508
2.30036  0.36473  -0.118508
2.39614  0.3835  0
2.39614  0.336674  -0.109392
2.39614  0.392786  -0.127624
2.10882  -0.354  0
2.10882  -0.286392  -0.208076
2.10882  -0.334124  -0.242755
2.10882  -0.413  0
2.20459  -0.354  0
2.20459  -0.286392  -0.208076
2.20459  -0.334124  -0.242755
2.20459  -0.413  0
2.10882  -0.336674  -0.109392
2.10882  -0.310258  -0.225416
2.10882  -0.392786  -0.127624
2.10882  -0.3835  0
2.20459  -0.36473  -0.118508
2.10882  -0.36473  -0.118508
2.20459  -0.3835  0
2.20459  -0.310258  -0.225416
2.20459  -0.336674  -0.109392
2.20459  -0.392786  -0.127624
2.10882  -0.109392  -0.336674
2.10882  -0.127624  -0.392786
2.20459  -0.109392  -0.336674
2.20459  -0.127624  -0.392786
2.10882  -0.208076  -0.286392
2.10882  -0.118508  -0.36473
2.10882  -0.242755  -0.334124
2.20459  -0.225416  -0.310258
2.10882  -0.225416  -0.310258
2.20459  -0.118508  -0.36473
2.20459  -0.208076  -0.286392
2.20459  -0.242755  -0.334124
2.10882  0.109392  -0.336674
2.10882  0.127624  -0.392786
2.20459  0.109392  -0.336674
2.20459  0.127624  -0.392786
2.10882  0  -0.354
2.10882  0.118508  -0.36473
2.10882  0  -0.413
2.20459  0  -0.3835
2.10882  0  -0.3835
2.20459  0.118508  -0.36473
2.20459  0  -0.354
2.20459  0  -0.413
2.10882  0.286392  -0.208076
2.10882  0.334124  -0.242755
2.20459  0.286392  -0.208076
2.20459  0.334124  -0.242755
2.10882  0.208076  -0.286392
2.10882  0.310258  -0.225416
2.10882  0.242755  -0.334124
2.20459  0.225416  -0.310258
2.10882  0.225416  -0.310258
2.20459  0.310258  -0.225416
2.20459  0.208076  -0.286392
2.20459  0.242755  -0.334124
2.10882  0.354  0
2.10882  0.413  0
2.20459  0.354  0
2.20459  0.413  0
2.10882  0.336674  -0.109392
2.10882  0.3835  0
2.10882  0.392786  -0.127624
2.20459  0.36473  -0.118508
2.10882  0.36473  -0.118508
2.20459  0.3835  0
2.20459  0.336674  -0.109392
2.20459  0.392786  -0.127624
1.91727  -0.354  0
1.91727  -0.286392  -0.208076
1.91727  -0.334124  -0.242755
1.91727  -0.413  0
2.01305  -0.354  0
2.01305  -0.286392  -0.208076
2.01305  -0.334124  -0.242755
2.01305  -0.413  0
1.91727  -0.336674  -0.109392
1.91727  -0.310258  -0.225416
1.91727  -0.392786  -0.127624
1.91727  -0.3835  0
2.01305  -0.36473  -0.118508
1.91727  -0.36473  -0.118508
2.01305  -0.3835  0
2.01305  -0.310258  -0.225416
2.01305  -0.336674  -0.109392
2.01305  -0.392786  -0.127624
1.91727  -0.109392  -0.336674
1.91727  -0.127624  -0.392786
2.01305  -0.109392  -0.336674
2.01305  -0.127624  -0.392786
1.91727  -0.208076  -0.286392
1.91727  -0.118508  -0.36473
1.91727  -0.242755  -0.334124
2.01305  -0.225416  -0.310258
1.91727  -0.225416  -0.310258
2.01305  -0.118508  -0.36473
2.01305  -0.208076  -0.286392
2.01305  -0.242755  -0.334124
1.91727  0.109392  -0.336674
1.91727  0.127624  -0.392786
2.01305  0.109392  -0.336674
2.01305  0.127624  -0.392786
1.91727  0  -0.354
1.91727  0.118508  -0.36473
1.91727  0  -0.413
2.01305  0  -0.3835
1.91727  0  -0.3835
2.01305  0.118508  -0.36473
2.01305  0  -0.354
2.01305  0  -0.413
1.91727  0.286392  -0.208076
1.91727  0.334124  -0.242755
2.01305  0.286392  -0.208076
2.01305  0.334124  -0.242755
1.91727  0.208076  -0.286392
1.91727  0.310258  -0.225416
1.91727  0.242755  -0.334124
2.01305  0.225416  -0.310258
1.91727  0.225416  -0.310258
2.01305  0.310258  -0.225416
2.01305  0.208076  -0.286392
2.01305  0.242755  -0.334124
1.91727  0.354  0
1.91727  0.413  0
2.01305  0.354  0
2.01305  0.413  0
1.91727  0.336674  -0.109392
1.91727  0.3835  0
1.91727  0.392786  -0.127624
2.01305  0.36473  -0.118508
1.91727  0.36473  -0.118508
2.01305  0.3835  0
2.01305  0.336674  -0.109392
2.01305  0.392786  -0.127624
1.72573  -0.354  0
1.72573  -0.286392  -0.208076
1.72573  -0.334124  -0.242755
1.72573  -0.413  0
1.8215  -0.354  0
1.8215  -0.286392  -0.208076
1.8215  -0.334124  -0.242755
1.8215  -0.413  0
1.72573  -0.336674  -0.109392
1.72573  -0.310258  -0.225416
1.72573  -0.392786  -0.127624
1.72573  -0.3835  0
1.8215  -0.36473  -0.118508
[...]
CELL_DATA 410
VECTORS current_real float
3373923 -27987.351 -9093.6387
3373923 -17297.134 -23807.462
3373923 1.051769e-06 -29427.642
3373923 17297.134 -23807.462
3373923 27987.351 -9093.6387
3569217.9 -28371.564 -9218.4865
3569217.8 -17534.591 -24134.296
3569217.8 2.2087712e-06 -29831.63
3569217.8 17534.591 -24134.296
3569217.9 28371.564 -9218.4865
3757639.1 -26385.121 -8573.0559
3757639.1 -16306.901 -22444.528
3757639.1 1.1470434e-06 -27742.961
3757639.1 16306.901 -22444.528
3757639.1 26385.121 -8573.0559
3931513.1 -24156.622 -7848.9678
3931513.1 -14929.612 -20548.853
3931513.1 -7.4774245e-07 -25399.777
3931513.1 14929.612 -20548.853
3931513.1 24156.622 -7848.9678
4089935.1 -21898.049 -7115.1106
4089935.1 -13533.737 -18627.595
4089935.1 1.0026833e-07 -23024.972
4089935.1 13533.737 -18627.595
4089935.1 21898.049 -7115.1106
4232904.7 -19665.748 -6389.7908
4232904.7 -12154.1 -16728.685
4232904.7 1.5474613e-07 -20677.792
4232904.7 12154.1 -16728.685
4232904.7 19665.748 -6389.7908
4360654.4 -17473.708 -5677.5532
4360654.4 -10799.345 -14864.025
4360654.4 -4.0902392e-07 -18372.945
4360654.4 10799.345 -14864.025
4360654.4 17473.708 -5677.5532
4473465.2 -15322.762 -4978.668
4473465.2 -9469.9878 -13034.321
4473465.2 1.3740604e-06 -16111.306
4473465.2 9469.9878 -13034.321
4473465.2 15322.762 -4978.668
4571608 -13209.319 -4291.9684
4571608 -8163.808 -11236.518
4571608 -1.0611091e-06 -13889.1
4571608 8163.808 -11236.518
4571608 13209.319 -4291.9684
4655325.5 -11128.47 -3615.8593
4655325.5 -6877.7726 -9466.4421
4655325.5 -2.3351808e-07 -11701.166
4655325.5 6877.7726 -9466.4421
4655325.5 11128.47 -3615.8593
4724851.3 -9081.8621 -2950.876
4724851.3 -5612.8994 -7725.4934
4724851.3 1.5273692e-06 -9549.2349
4724851.3 5612.8994 -7725.4934
4724851.3 9081.8621 -2950.876
1364241.9 -43927.577 -14272.936
1364241.9 -27148.738 -37367.028
1364241.9 -4.6657426e-07 -46188.188
1364241.9 27148.738 -37367.028
1364241.9 43927.577 -14272.936
1204374.7 -45452.224 -14768.323
1204374.7 -28091.02 -38663.971
1204374.7 -5.621159e-07 -47791.296
1204374.7 28091.02 -38663.971
1204374.7 45452.224 -14768.323
1028375.6 -50951.831 -16555.253
1028375.6 -31489.964 -43342.216
1028375.6 4.9873984e-07 -53573.925
1028375.6 31489.964 -43342.216
1028375.6 50951.831 -16555.253
819246.42 -58434.856 -18986.635
819246.42 -36114.727 -49707.657
819246.42 4.98673e-08 -61442.043
819246.42 36114.727 -49707.657
819246.42 58434.856 -18986.635
502510.4 -79533.413 -25841.972
502510.4 -49154.353 -67655.162
502510.4 -4.3820521e-07 -83626.379
502510.4 49154.353 -67655.162
502510.4 79533.413 -25841.972
1364241.9 -43927.578 14272.935
1204374.7 -45452.224 14768.323
1028375.6 -50951.831 16555.253
819246.42 -58434.856 18986.636
502510.4 -79533.413 25841.972
1364241.9 -27148.736 37367.029
1204374.7 -28091.019 38663.971
1028375.6 -31489.963 43342.216
819246.42 -36114.727 49707.657
502510.4 -49154.352 67655.162
1364241.9 6.9407393e-06 46188.188
1204374.7 -3.9680085e-06 47791.296
1028375.6 1.3120251e-06 53573.925
819246.42 1.0039242e-06 61442.043
502510.4 9.8968013e-07 83626.379
1364241.9 27148.736 37367.029
1204374.7 28091.019 38663.971
1028375.6 31489.963 43342.216
819246.42 36114.727 49707.657
502510.4 49154.352 67655.162
1364241.9 43927.578 14272.935
1204374.7 45452.224 14768.323
1028375.6 50951.831 16555.253
819246.42 58434.856 18986.636
502510.4 79533.413 25841.972
4724851.3 9081.8622 2950.8757
4655325.5 11128.47 3615.8589
4571608 13209.319 4291.9676
4473465.2 15322.763 4978.6667
4360654.4 17473.709 5677.551
4232904.7 19665.749 6389.7872
4089935.1 21898.051 7115.1047
3931513.1 24156.625 7848.9577
3757639.1 26385.127 8573.0369
3569217.8 28371.568 9218.4749
3373923 27987.348 9093.6435
4724851.3 5612.8995 7725.4933
4655325.5 6877.7728 9466.4419
4571608 8163.8084 11236.518
4473465.2 9469.9885 13034.32
4360654.4 10799.346 14864.024
4232904.7 12154.102 16728.684
4089935.1 13533.74 18627.593
3931513.1 14929.616 20548.85
3757639.1 16306.905 22444.525
3569217.8 17534.593 24134.295
3373923 17297.132 23807.461
4724851.3 -3.5400572e-06 9549.2349
4655325.5 -6.6693265e-07 11701.166
4571608 5.8159529e-07 13889.1
4473465.2 4.3057925e-07 16111.306
4360654.4 -1.8854748e-06 18372.945
4232904.7 1.7420997e-07 20677.792
4089935.1 -5.5712809e-08 23024.972
3931513.1 -6.8385649e-07 25399.777
3757639.1 1.8793597e-06 27742.961
3569217.8 -5.1575271e-07 29831.63
3373923 -4.0522476e-07 29427.64
4724851.3 -5612.8995 7725.4933
4655325.5 -6877.7728 9466.4419
4571608 -8163.8084 11236.518
4473465.2 -9469.9885 13034.32
4360654.4 -10799.346 14864.024
4232904.7 -12154.102 16728.684
4089935.1 -13533.74 18627.593
3931513.1 -14929.616 20548.85
3757639.1 -16306.905 22444.525
3569217.8 -17534.593 24134.295
3373923 -17297.132 23807.461
4724851.3 -9081.8622 2950.8757
4655325.5 -11128.47 3615.8589
4571608 -13209.319 4291.9676
4473465.2 -15322.763 4978.6667
4360654.4 -17473.709 5677.551
4232904.7 -19665.749 6389.7872
4089935.1 -21898.051 7115.1047
3931513.1 -24156.625 7848.9577
3757639.1 -26385.127 8573.0369
3569217.8 -28371.568 9218.4749
3373923 -27987.348 9093.6435
502510.4 79533.413 25841.973
819246.42 58434.856 18986.636
1028375.6 50951.831 16555.254
1204374.7 45452.224 14768.323
1364242 43927.578 14272.934
502510.4 49154.352 67655.162
819246.42 36114.727 49707.657
1028375.6 31489.963 43342.216
1204374.7 28091.019 38663.971
1364241.9 27148.734 37367.031
502510.4 -2.4662464e-08 83626.379
819246.42 7.4005372e-08 61442.043
1028375.6 -3.9159395e-07 53573.925
1204374.7 9.0939903e-07 47791.296
1364241.9 -2.5248115e-06 46188.188
502510.4 -49154.352 67655.162
819246.42 -36114.727 49707.657
1028375.6 -31489.963 43342.216
1204374.7 -28091.019 38663.971
1364241.9 -27148.734 37367.031
502510.4 -79533.413 25841.973
819246.42 -58434.856 18986.636
1028375.6 -50951.831 16555.254
1204374.7 -45452.224 14768.323
1364242 -43927.578 14272.934
502510.4 79533.413 -25841.972
502510.4 49154.352 -67655.162
502510.4 -1.1202233e-06 -83626.379
502510.4 -49154.352 -67655.162
502510.4 -79533.413 -25841.972
819246.42 58434.856 -18986.636
819246.42 36114.727 -49707.657
819246.42 1.3899672e-07 -61442.043
819246.42 -36114.727 -49707.657
819246.42 -58434.856 -18986.636
1028375.6 50951.831 -16555.253
1028375.6 31489.963 -43342.216
1028375.6 -1.8337895e-06 -53573.925
1028375.6 -31489.963 -43342.216
1028375.6 -50951.831 -16555.253
1204374.7 45452.224 -14768.323
1204374.7 28091.019 -38663.971
1204374.7 2.344663e-07 -47791.296
1204374.7 -28091.019 -38663.971
1204374.7 -45452.224 -14768.323
1364241.9 43927.578 -14272.935
1364241.9 27148.736 -37367.029
1364241.9 1.7455495e-06 -46188.188
1364241.9 -27148.736 -37367.029
1364241.9 -43927.578 -14272.935
2056919.9 497937.86 161789.82
2056919.9 307742.52 423571.24
2056919.9 -1.0106708e-05 523562.85
2056919.9 -307742.52 423571.24
2056919.9 -497937.86 161789.82
2056919.9 497937.86 -161789.82
2056919.9 307742.52 -423571.24
2056919.9 -3.31916e-06 -523562.85
2056919.9 -307742.52 -423571.24
2056919.9 -497937.86 -161789.82
2056919.9 -497937.85 161789.84
2056919.9 -307742.52 423571.24
2056919.9 6.292453e-06 523562.85
2056919.9 307742.52 423571.24
2056919.9 497937.85 161789.84
2056919.9 497937.87 -161789.79
2056919.9 307742.52 -423571.24
2056919.9 -4.144929e-06 -523562.85
2056919.9 -307742.52 -423571.24
2056919.9 -497937.87 -161789.79
4865083 -2.646124e-06 -9.7913031e-06
4865083 -5.8583335e-06 -4.8548525e-06
4865083 6.6797196e-07 -4.7507648e-07
4865083 3.2060258e-06 -2.9277917e-06
4865083 3.8463303e-06 -1.3484813e-05
4865083 -6.5444306e-06 -1.8396265e-05
4865083 -6.3003799e-06 -3.8800926e-06
4865083 1.1610669e-06 5.730067e-07
4865083 9.5958069e-06 -6.2743974e-06
4865083 5.0238336e-06 -1.3716299e-05
4856594.5 2177.3138 707.45212
4856594.5 1345.6539 1852.1337
4856594.5 -3.9267105e-07 2289.3632
4856594.5 -1345.6539 1852.1337
4856594.5 -2177.3138 707.45212
4829719.5 4519.7078 1468.5421
4829719.5 2793.333 3844.6931
4829719.5 -1.3788685e-06 4752.302
4829719.5 -2793.333 3844.6931
4829719.5 -4519.7078 1468.5421
4783979.6 6877.2842 2234.5651
4783979.6 4250.3954 5850.1674
4783979.6 -1.411711e-06 7231.2046
4783979.6 -4250.3954 5850.1674
4783979.6 -6877.2842 2234.5651
4783979.6 -6877.2842 -2234.5651
4829719.5 -4519.7078 -1468.5421
4856594.5 -2177.3138 -707.45213
4783979.6 -4250.3954 -5850.1674
4829719.5 -2793.333 -3844.6931
4856594.5 -1345.6539 -1852.1337
4783979.6 -1.0458061e-06 -7231.2046
4829719.5 8.8844477e-07 -4752.302
4856594.5 1.5813885e-06 -2289.3632
4783979.6 4250.3954 -5850.1674
4829719.5 2793.333 -3844.6931
4856594.5 1345.6539 -1852.1337
4783979.6 6877.2842 -2234.5651
4829719.5 4519.7078 -1468.5421
4856594.5 2177.3138 -707.45214
4783979.6 6877.2842 -2234.5652
4829719.5 4519.7078 -1468.5421
4856594.5 2177.3138 -707.45216
4783979.6 4250.3954 -5850.1674
4829719.5 2793.333 -3844.6931
4856594.5 1345.6539 -1852.1337
4783979.6 3.0317472e-07 -7231.2046
4829719.5 -2.612804e-06 -4752.302
4856594.5 4.3085956e-06 -2289.3632
4783979.6 -4250.3954 -5850.1674
4829719.5 -2793.333 -3844.6931
4856594.5 -1345.6539 -1852.1337
4783979.6 -6877.2842 -2234.5652
4829719.5 -4519.7078 -1468.5421
4856594.5 -2177.3138 -707.45214
4856594.5 -2177.3138 707.45211
4856594.5 -1345.6539 1852.1337
4856594.5 2.4341494e-07 2289.3632
4856594.5 1345.6539 1852.1337
4856594.5 2177.3138 707.4521
4829719.5 -4519.7078 1468.542
4829719.5 -2793.3331 3844.6931
4829719.5 -3.7084345e-06 4752.302
4829719.5 2793.3331 3844.6931
4829719.5 4519.7078 1468.5421
4783979.6 -6877.2843 2234.565
4783979.6 -4250.3954 5850.1674
4783979.6 3.1419369e-06 7231.2046
4783979.6 4250.3954 5850.1674
4783979.6 6877.2843 2234.565
4724851.3 -9081.8621 2950.8759
4655325.5 -11128.47 3615.8591
4571608 -13209.319 4291.968
4473465.2 -15322.763 4978.6674
4360654.4 -17473.709 5677.5521
4232904.7 -19665.748 6389.789
4089935.1 -21898.05 7115.1076
3931513.1 -24156.623 7848.9628
3757639.1 -26385.124 8573.0464
3569217.8 -28371.566 9218.4807
3373923 -27987.35 9093.6414
4724851.3 -5612.8995 7725.4934
4655325.5 -6877.7727 9466.442
4571608 -8163.8082 11236.518
4473465.2 -9469.9881 13034.32
4360654.4 -10799.346 14864.024
4232904.7 -12154.101 16728.685
4089935.1 -13533.739 18627.594
3931513.1 -14929.614 20548.851
3757639.1 -16306.903 22444.527
3569217.8 -17534.592 24134.296
3373923 -17297.134 23807.462
4724851.3 2.155785e-06 9549.2349
4655325.5 3.6655692e-06 11701.166
4571608 -2.221597e-06 13889.1
4473465.2 -8.9737335e-08 16111.306
4360654.4 -3.3739091e-06 18372.945
4232904.7 2.2549333e-06 20677.792
4089935.1 5.9213191e-07 23024.972
3931513.1 5.0200376e-07 25399.777
3757639.1 -1.5309471e-06 27742.961
3569217.8 7.9621014e-07 29831.63
3373923 7.6378701e-07 29427.642
4724851.3 5612.8995 7725.4934
4655325.5 6877.7727 9466.442
4571608 8163.8082 11236.518
4473465.2 9469.9881 13034.32
4360654.4 10799.346 14864.024
4232904.7 12154.101 16728.685
4089935.1 13533.739 18627.594
3931513.1 14929.614 20548.851
3757639.1 16306.903 22444.527
3569217.8 17534.592 24134.296
3373923 17297.134 23807.462
4724851.3 9081.8621 2950.8759
4655325.5 11128.47 3615.8591
4571608 13209.319 4291.968
4473465.2 15322.763 4978.6674
4360654.4 17473.709 5677.5521
4232904.7 19665.748 6389.789
4089935.1 21898.05 7115.1076
3931513.1 24156.623 7848.9628
3757639.1 26385.124 8573.0464
3569217.8 28371.566 9218.4807
3373923 27987.35 9093.6414
3373923 27987.35 -9093.6414
3373923 17297.134 -23807.462
3373923 -4.7816056e-07 -29427.642
3373923 -17297.134 -23807.462
3373923 -27987.35 -9093.6414
3569217.8 28371.566 -9218.4807
3569217.8 17534.592 -24134.296
3569217.8 4.7542189e-08 -29831.63
3569217.8 -17534.592 -24134.296
3569217.8 -28371.566 -9218.4807
3757639.1 26385.124 -8573.0464
3757639.1 16306.903 -22444.527
3757639.1 9.0449189e-07 -27742.961
3757639.1 -16306.903 -22444.527
3757639.1 -26385.124 -8573.0464
3931513.1 24156.623 -7848.9628
3931513.1 14929.614 -20548.851
3931513.1 -1.9670354e-07 -25399.777
3931513.1 -14929.614 -20548.851
3931513.1 -24156.623 -7848.9628
4089935.1 21898.05 -7115.1076
4089935.1 13533.739 -18627.594
4089935.1 3.0054205e-08 -23024.972
4089935.1 -13533.739 -18627.594
4089935.1 -21898.05 -7115.1076
4232904.7 19665.748 -6389.789
4232904.7 12154.101 -16728.685
4232904.7 4.9134268e-07 -20677.792
4232904.7 -12154.101 -16728.685
4232904.7 -19665.748 -6389.789
4360654.4 17473.709 -5677.5521
4360654.4 10799.346 -14864.024
4360654.4 -1.4671732e-06 -18372.945
4360654.4 -10799.346 -14864.024
4360654.4 -17473.709 -5677.5521
4473465.2 15322.763 -4978.6674
4473465.2 9469.9881 -13034.32
4473465.2 -1.767746e-06 -16111.306
4473465.2 -9469.9881 -13034.32
4473465.2 -15322.763 -4978.6674
4571608 13209.319 -4291.968
4571608 8163.8082 -11236.518
4571608 5.154345e-07 -13889.1
4571608 -8163.8082 -11236.518
4571608 -13209.319 -4291.968
4655325.5 11128.47 -3615.8591
4655325.5 6877.7727 -9466.442
4655325.5 1.3268912e-06 -11701.166
4655325.5 -6877.7727 -9466.442
4655325.5 -11128.47 -3615.8591
4724851.3 9081.8621 -2950.8759
4724851.3 5612.8995 -7725.4934
4724851.3 5.5614523e-07 -9549.2349
4724851.3 -5612.8995 -7725.4934
4724851.3 -9081.8621 -2950.8759
SCALARS topo_ids float 1
LOOKUP_TABLE default
0
1
2
3
4
5
6
7
8
9
10
11
12
13
14
15
16
17
18
19
20
21
22
23
24
25
26
27
28
29
30
31
32
33
34
35
36
37
38
39
40
41
42
43
44
45
46
47
48
49
50
51
52
53
54
55
56
57
58
59
60
61
62
63
64
65
66
67
68
69
70
71
72
73
74
75
76
77
78
79
80
81
82
83
84
85
86
87
88
89
90
91
92
93
94
95
96
97
98
99
100
101
102
103
104
105
106
107
108
109
110
111
112
113
114
115
116
117
118
119
120
121
122
123
124
125
126
127
128
129
130
131
132
133
134
135
136
137
138
139
140
141
142
143
144
145
146
147
148
149
150
151
152
153
154
155
156
157
158
159
160
161
162
163
164
165
166
167
168
169
170
171
172
173
174
175
176
177
178
179
180
181
182
183
184
185
186
187
188
189
190
191
192
193
194
195
196
197
198
199
200
201
202
203
204
205
206
207
208
209
210
211
212
213
214
215
216
217
218
219
220
221
222
223
224
225
226
227
228
229
230
231
232
233
234
235
236
237
238
239
240
241
242
243
244
245
246
247
248
249
250
251
252
253
254
255
256
257
258
259
260
261
262
263
264
265
266
267
268
269
270
271
272
273
274
275
276
277
278
279
280
281
282
283
284
285
286
287
288
289
290
291
292
293
294
295
296
297
298
299
300
301
302
303
304
305
306
307
308
309
310
311
312
313
314
315
316
317
318
319
320
321
322
323
324
325
326
327
328
329
330
331
332
333
334
335
336
337
338
339
340
341
342
343
344
345
346
347
348
349
350
351
352
353
354
355
356
357
358
359
360
361
362
363
364
365
366
367
368
369
370
371
372
373
374
375
376
377
378
379
380
381
382
383
384
385
386
387
388
389
390
391
392
393
394
395
396
397
398
399
400
401
402
403
404
405
406
407
408
409
