# vtk DataFile Version 2.0
Mesh3D
ASCII

DATASET UNSTRUCTURED_GRID
POINTS 45882 float
7.875  -3.26193  0.75
7.625  -3.15838  0.75
7.625  -2.90571  0.75
7.875  -3.00098  0.75
7.875  -3.26193  0.5
7.625  -3.15838  0.5
7.625  -2.90571  0.5
7.875  -3.00098  0.5
7.75  -3.21016  0.75
7.625  -3.03204  0.75
7.75  -2.95334  0.75
7.875  -3.13145  0.75
7.875  -3.26193  0.625
7.625  -3.15838  0.625
7.625  -2.90571  0.625
7.875  -3.00098  0.625
7.75  -3.21016  0.5
7.625  -3.03204  0.5
7.75  -2.95334  0.5
7.875  -3.13145  0.5
7.75  -3.08175  0.625
7.75  -3.08175  0.75
7.75  -3.08175  0.5
7.875  -3.13145  0.625
7.625  -3.03204  0.625
7.75  -3.21016  0.625
7.75  -2.95334  0.625
7.375  -3.05483  0.75
7.375  -2.81044  0.75
7.375  -3.05483  0.5
7.375  -2.81044  0.5
7.5  -3.1066  0.75
7.375  -2.93263  0.75
7.5  -2.85807  0.75
7.375  -3.05483  0.625
7.375  -2.81044  0.625
7.5  -3.1066  0.5
7.375  -2.93263  0.5
7.5  -2.85807  0.5
7.5  -2.98234  0.625
7.5  -2.98234  0.75
7.5  -2.98234  0.5
7.375  -2.93263  0.625
7.5  -3.1066  0.625
7.5  -2.85807  0.625
7.125  -2.95127  0.75
7.125  -2.71517  0.75
7.125  -2.95127  0.5
7.125  -2.71517  0.5
7.25  -3.00305  0.75
7.125  -2.83322  0.75
7.25  -2.7628  0.75
7.125  -2.95127  0.625
7.125  -2.71517  0.625
7.25  -3.00305  0.5
7.125  -2.83322  0.5
7.25  -2.7628  0.5
7.25  -2.88293  0.625
7.25  -2.88293  0.75
7.25  -2.88293  0.5
7.125  -2.83322  0.625
7.25  -3.00305  0.625
7.25  -2.7628  0.625
6.875  -2.84772  0.75
6.875  -2.6199  0.75
6.875  -2.84772  0.5
6.875  -2.6199  0.5
7  -2.89949  0.75
6.875  -2.73381  0.75
7  -2.66754  0.75
6.875  -2.84772  0.625
6.875  -2.6199  0.625
7  -2.89949  0.5
6.875  -2.73381  0.5
7  -2.66754  0.5
7  -2.78352  0.625
7  -2.78352  0.75
7  -2.78352  0.5
6.875  -2.73381  0.625
7  -2.89949  0.625
7  -2.66754  0.625
7.625  -2.65304  0.75
7.875  -2.74002  0.75
7.625  -2.65304  0.5
7.875  -2.74002  0.5
7.625  -2.77937  0.75
7.75  -2.69653  0.75
7.875  -2.8705  0.75
7.625  -2.65304  0.625
7.875  -2.74002  0.625
7.625  -2.77937  0.5
7.75  -2.69653  0.5
7.875  -2.8705  0.5
7.75  -2.82494  0.625
7.75  -2.82494  0.75
7.75  -2.82494  0.5
7.875  -2.8705  0.625
7.625  -2.77937  0.625
7.75  -2.69653  0.625
7.375  -2.56605  0.75
7.375  -2.56605  0.5
7.375  -2.68825  0.75
7.5  -2.60955  0.75
7.375  -2.56605  0.625
7.375  -2.68825  0.5
7.5  -2.60955  0.5
7.5  -2.73381  0.625
7.5  -2.73381  0.75
7.5  -2.73381  0.5
7.375  -2.68825  0.625
7.5  -2.60955  0.625
7.125  -2.47907  0.75
7.125  -2.47907  0.5
7.125  -2.59712  0.75
7.25  -2.52256  0.75
7.125  -2.47907  0.625
7.125  -2.59712  0.5
7.25  -2.52256  0.5
7.25  -2.64268  0.625
7.25  -2.64268  0.75
7.25  -2.64268  0.5
7.125  -2.59712  0.625
7.25  -2.52256  0.625
6.875  -2.39208  0.75
6.875  -2.39208  0.5
6.875  -2.50599  0.75
7  -2.43558  0.75
6.875  -2.39208  0.625
6.875  -2.50599  0.5
7  -2.43558  0.5
7  -2.55156  0.625
7  -2.55156  0.75
7  -2.55156  0.5
6.875  -2.50599  0.625
7  -2.43558  0.625
7.625  -2.40037  0.75
7.875  -2.47907  0.75
7.625  -2.40037  0.5
7.875  -2.47907  0.5
7.625  -2.5267  0.75
7.75  -2.43972  0.75
7.875  -2.60955  0.75
7.625  -2.40037  0.625
7.875  -2.47907  0.625
7.625  -2.5267  0.5
7.75  -2.43972  0.5
7.875  -2.60955  0.5
7.75  -2.56812  0.625
7.75  -2.56812  0.75
7.75  -2.56812  0.5
7.875  -2.60955  0.625
7.625  -2.5267  0.625
7.75  -2.43972  0.625
7.375  -2.32167  0.75
7.375  -2.32167  0.5
7.375  -2.44386  0.75
7.5  -2.36102  0.75
7.375  -2.32167  0.625
7.375  -2.44386  0.5
7.5  -2.36102  0.5
7.5  -2.48528  0.625
7.5  -2.48528  0.75
7.5  -2.48528  0.5
7.375  -2.44386  0.625
7.5  -2.36102  0.625
7.125  -2.24297  0.75
7.125  -2.24297  0.5
7.125  -2.36102  0.75
7.25  -2.28232  0.75
7.125  -2.24297  0.625
7.125  -2.36102  0.5
7.25  -2.28232  0.5
7.25  -2.40244  0.625
7.25  -2.40244  0.75
7.25  -2.40244  0.5
7.125  -2.36102  0.625
7.25  -2.28232  0.625
6.875  -2.16427  0.75
6.875  -2.16427  0.5
6.875  -2.27817  0.75
7  -2.20362  0.75
6.875  -2.16427  0.625
6.875  -2.27817  0.5
7  -2.20362  0.5
7  -2.3196  0.625
7  -2.3196  0.75
7  -2.3196  0.5
6.875  -2.27817  0.625
7  -2.20362  0.625
7.625  -2.1477  0.75
7.875  -2.21811  0.75
7.625  -2.1477  0.5
7.875  -2.21811  0.5
7.625  -2.27403  0.75
7.75  -2.18291  0.75
7.875  -2.34859  0.75
7.625  -2.1477  0.625
7.875  -2.21811  0.625
7.625  -2.27403  0.5
7.75  -2.18291  0.5
7.875  -2.34859  0.5
7.75  -2.31131  0.625
7.75  -2.31131  0.75
7.75  -2.31131  0.5
7.875  -2.34859  0.625
7.625  -2.27403  0.625
7.75  -2.18291  0.625
7.375  -2.07728  0.75
7.375  -2.07728  0.5
7.375  -2.19947  0.75
7.5  -2.11249  0.75
7.375  -2.07728  0.625
7.375  -2.19947  0.5
7.5  -2.11249  0.5
7.5  -2.23675  0.625
7.5  -2.23675  0.75
7.5  -2.23675  0.5
7.375  -2.19947  0.625
7.5  -2.11249  0.625
7.125  -2.00686  0.75
7.125  -2.00686  0.5
7.125  -2.12492  0.75
7.25  -2.04207  0.75
7.125  -2.00686  0.625
7.125  -2.12492  0.5
7.25  -2.04207  0.5
7.25  -2.16219  0.625
7.25  -2.16219  0.75
7.25  -2.16219  0.5
7.125  -2.12492  0.625
7.25  -2.04207  0.625
6.875  -1.93645  0.75
6.875  -1.93645  0.5
6.875  -2.05036  0.75
7  -1.97166  0.75
6.875  -1.93645  0.625
6.875  -2.05036  0.5
7  -1.97166  0.5
7  -2.08764  0.625
7  -2.08764  0.75
7  -2.08764  0.5
6.875  -2.05036  0.625
7  -1.97166  0.625
7.625  -1.89503  0.75
7.875  -1.95716  0.75
7.625  -1.89503  0.5
7.875  -1.95716  0.5
7.625  -2.02136  0.75
7.75  -1.92609  0.75
7.875  -2.08764  0.75
7.625  -1.89503  0.625
7.875  -1.95716  0.625
7.625  -2.02136  0.5
7.75  -1.92609  0.5
7.875  -2.08764  0.5
7.75  -2.0545  0.625
7.75  -2.0545  0.75
7.75  -2.0545  0.5
7.875  -2.08764  0.625
7.625  -2.02136  0.625
7.75  -1.92609  0.625
7.375  -1.8329  0.75
7.375  -1.8329  0.5
7.375  -1.95509  0.75
7.5  -1.86396  0.75
7.375  -1.8329  0.625
7.375  -1.95509  0.5
7.5  -1.86396  0.5
7.5  -1.98823  0.625
7.5  -1.98823  0.75
7.5  -1.98823  0.5
7.375  -1.95509  0.625
7.5  -1.86396  0.625
7.125  -1.77076  0.75
7.125  -1.77076  0.5
7.125  -1.88881  0.75
7.25  -1.80183  0.75
7.125  -1.77076  0.625
7.125  -1.88881  0.5
7.25  -1.80183  0.5
7.25  -1.92195  0.625
7.25  -1.92195  0.75
7.25  -1.92195  0.5
7.125  -1.88881  0.625
7.25  -1.80183  0.625
6.875  -1.70863  0.75
6.875  -1.70863  0.5
6.875  -1.82254  0.75
7  -1.7397  0.75
6.875  -1.70863  0.625
6.875  -1.82254  0.5
7  -1.7397  0.5
7  -1.85568  0.625
7  -1.85568  0.75
7  -1.85568  0.5
6.875  -1.82254  0.625
7  -1.7397  0.625
7.625  -1.64236  0.75
7.875  -1.6962  0.75
7.625  -1.64236  0.5
7.875  -1.6962  0.5
7.625  -1.76869  0.75
7.75  -1.66928  0.75
7.875  -1.82668  0.75
7.625  -1.64236  0.625
7.875  -1.6962  0.625
7.625  -1.76869  0.5
7.75  -1.66928  0.5
7.875  -1.82668  0.5
7.75  -1.79769  0.625
7.75  -1.79769  0.75
7.75  -1.79769  0.5
7.875  -1.82668  0.625
7.625  -1.76869  0.625
7.75  -1.66928  0.625
7.375  -1.58851  0.75
7.375  -1.58851  0.5
7.375  -1.7107  0.75
7.5  -1.61543  0.75
7.375  -1.58851  0.625
7.375  -1.7107  0.5
7.5  -1.61543  0.5
7.5  -1.7397  0.625
7.5  -1.7397  0.75
7.5  -1.7397  0.5
7.375  -1.7107  0.625
7.5  -1.61543  0.625
7.125  -1.53466  0.75
7.125  -1.53466  0.5
7.125  -1.65271  0.75
7.25  -1.56159  0.75
7.125  -1.53466  0.625
7.125  -1.65271  0.5
7.25  -1.56159  0.5
7.25  -1.68171  0.625
7.25  -1.68171  0.75
7.25  -1.68171  0.5
7.125  -1.65271  0.625
7.25  -1.56159  0.625
6.875  -1.48081  0.75
6.875  -1.48081  0.5
6.875  -1.59472  0.75
7  -1.50774  0.75
6.875  -1.48081  0.625
6.875  -1.59472  0.5
7  -1.50774  0.5
7  -1.62372  0.625
7  -1.62372  0.75
7  -1.62372  0.5
6.875  -1.59472  0.625
7  -1.50774  0.625
7.625  -1.38969  0.75
7.875  -1.43525  0.75
7.625  -1.38969  0.5
7.875  -1.43525  0.5
7.625  -1.51602  0.75
7.75  -1.41247  0.75
7.875  -1.56573  0.75
7.625  -1.38969  0.625
7.875  -1.43525  0.625
7.625  -1.51602  0.5
7.75  -1.41247  0.5
7.875  -1.56573  0.5
7.75  -1.54087  0.625
7.75  -1.54087  0.75
7.75  -1.54087  0.5
7.875  -1.56573  0.625
7.625  -1.51602  0.625
7.75  -1.41247  0.625
7.375  -1.34412  0.75
7.375  -1.34412  0.5
7.375  -1.46632  0.75
7.5  -1.3669  0.75
7.375  -1.34412  0.625
7.375  -1.46632  0.5
7.5  -1.3669  0.5
7.5  -1.49117  0.625
7.5  -1.49117  0.75
7.5  -1.49117  0.5
7.375  -1.46632  0.625
7.5  -1.3669  0.625
7.125  -1.29856  0.75
7.125  -1.29856  0.5
7.125  -1.41661  0.75
7.25  -1.32134  0.75
7.125  -1.29856  0.625
7.125  -1.41661  0.5
7.25  -1.32134  0.5
7.25  -1.44146  0.625
7.25  -1.44146  0.75
7.25  -1.44146  0.5
7.125  -1.41661  0.625
7.25  -1.32134  0.625
6.875  -1.253  0.75
6.875  -1.253  0.5
6.875  -1.3669  0.75
7  -1.27578  0.75
6.875  -1.253  0.625
6.875  -1.3669  0.5
7  -1.27578  0.5
7  -1.39176  0.625
7  -1.39176  0.75
7  -1.39176  0.5
6.875  -1.3669  0.625
7  -1.27578  0.625
7.625  -1.13702  0.75
7.875  -1.1743  0.75
7.625  -1.13702  0.5
7.875  -1.1743  0.5
7.625  -1.26335  0.75
7.75  -1.15566  0.75
7.875  -1.30477  0.75
7.625  -1.13702  0.625
7.875  -1.1743  0.625
7.625  -1.26335  0.5
7.75  -1.15566  0.5
7.875  -1.30477  0.5
7.75  -1.28406  0.625
7.75  -1.28406  0.75
7.75  -1.28406  0.5
7.875  -1.30477  0.625
7.625  -1.26335  0.625
7.75  -1.15566  0.625
7.375  -1.09974  0.75
7.375  -1.09974  0.5
7.375  -1.22193  0.75
7.5  -1.11838  0.75
7.375  -1.09974  0.625
7.375  -1.22193  0.5
7.5  -1.11838  0.5
7.5  -1.24264  0.625
7.5  -1.24264  0.75
7.5  -1.24264  0.5
7.375  -1.22193  0.625
7.5  -1.11838  0.625
7.125  -1.06246  0.75
7.125  -1.06246  0.5
7.125  -1.18051  0.75
7.25  -1.0811  0.75
7.125  -1.06246  0.625
7.125  -1.18051  0.5
7.25  -1.0811  0.5
7.25  -1.20122  0.625
7.25  -1.20122  0.75
7.25  -1.20122  0.5
7.125  -1.18051  0.625
7.25  -1.0811  0.625
6.875  -1.02518  0.75
6.875  -1.02518  0.5
6.875  -1.13909  0.75
[...]
CELL_DATA 4528
VECTORS current_real float
25362.677 641155.22 -82203.224
192387.57 885854.05 -24850.125
359374.19 1083194.6 -15543.612
218086.39 1570350.7 -5877.9927
30272.434 721463.98 -33609.676
151613.84 1050638.2 -20528.029
186446.8 1193704.8 -12399.093
86295.477 1364263.8 -11413.737
24687.203 859750.25 -18687.024
89304.88 1134845 -11474.998
81898.549 1200799.6 -9846.1066
35385.521 1281073 -9462.4644
6902.6741 976186.46 -12678.498
42980.258 1166249.6 -8711.7818
39449.443 1196550.7 -8235.9956
17894.404 1246049.5 -8128.2673
-1467.1014 1050934.8 -10603.183
20093.945 1183230.5 -7319.5073
19414.73 1196264.2 -6992.2714
9907.4769 1229660.1 -6955.1707
-4754.6734 1100794.6 -9089.0081
9327.2933 1193188.9 -6195.6963
10090.612 1198501.8 -5864.0305
6079.7573 1221799.4 -5857.7346
-5589.5202 1136093 -7666.2726
4257.6923 1199771.4 -5194.1312
5616.9541 1201788.1 -4930.4065
4122.4064 1217844.5 -4915.2204
-5273.8265 1162140.7 -6333.5811
1910.1159 1204415.9 -4266.9564
3222.7529 1205140.5 -4007.3363
2819.2457 1215833.4 -4014.5386
-4516.6153 1181544.6 -5011.9894
731.62031 1207843.3 -3368.1777
1902.8089 1208014.1 -3143.252
1957.3212 1214866.2 -3152.7005
-3453.9443 1195684.4 -3706.5747
201.73255 1210292.7 -2475.6356
1093.9779 1210341 -2312.1032
1328.4654 1214391.5 -2300.5438
-2273.919 1205390.8 -2423.7492
69.002322 1211868.4 -1613.258
610.84597 1212018.4 -1488.7205
781.54537 1214162.2 -1460.7149
-1095.4546 1211028 -1143.2605
-3.5273872 1212736.3 -750.26148
226.942 1212982.1 -680.52471
295.17059 1214055.7 -627.97905
95.324489 1212739.2 129.50314
-21.563925 1212947.3 105.28885
-133.23894 1213236.4 122.45366
-199.56132 1214028 198.91434
1286.5417 1210576.3 1402.1974
-38.621235 1212514.1 960.63152
-491.74137 1212750.2 924.9726
-692.63555 1214084.6 1024.6588
2466.3565 1204488 2682.5051
-108.17756 1211425 1823.0306
-870.5704 1211555.3 1731.8295
-1173.9999 1214216.9 1853.9394
3648.7454 1194331.2 3965.0343
-235.74454 1209630.2 2684.4505
-1345.0106 1209648.5 2553.014
-1712.4425 1214466.1 2688.0072
4715.0421 1179742.5 5270.0552
-757.75303 1206965 3575.6333
-2140.9736 1207094.6 3380.9965
-2329.0905 1214951.3 3532.0625
5477.7753 1159892.1 6591.1627
-1924.4263 1203326.4 4472.7063
-3442.8108 1203996.7 4241.0685
-3174.6323 1215915.8 4383.346
5801.9011 1133402.4 7923.2301
-4254.0132 1198477.7 5397.8095
-5811.3889 1200422.6 5159.1649
-4456.2026 1217905.7 5270.8845
4981.2903 1097671.8 9345.2023
-9293.419 1191701.8 6396.8434
-10246.826 1196915.9 6086.8286
-6384.8595 1221813.2 6197.3236
1719.516 1047403.3 10858.949
-20005.009 1181568.7 7517.7777
-19508.29 1194455.1 7207.7402
-10171.882 1229587.2 7274.8797
-6600.0893 972304.8 12936.346
-42782.736 1164451.2 8907.4082
-39429.104 1194507.6 8442.0003
-18095.165 1245823.6 8422.8847
-24288.49 855658.29 18959.52
-88886.901 1133003.3 11671.692
-81651.602 1198493.8 10038.466
-35475.234 1280570.2 9721.1926
-29705.51 717486.46 33962.032
-150782.09 1048989.5 20749.639
-185689.79 1191160.8 12564.854
-86110.728 1363196.9 11614.256
-24131.071 639002.2 83299.329
-190682.31 884401.65 25159.322
-357700.01 1080962.1 15699.889
-217168.31 1567867.6 5857.825
58679.271 745088.32 -78570.78
226995.73 868187.69 -25071.131
377117.7 1085420.5 -10590.727
226940.42 1536174.6 1627.0773
32210.52 961367.16 -27004.599
138800.38 1045515.5 -16727.613
168838.47 1213731.3 -7834.3266
74390.739 1318624.4 -5995.9485
20964.426 1072661.7 -8911.6669
75311.277 1135536.3 -7453.827
71336.571 1214304.1 -6328.1547
26833.015 1245248.2 -5288.6267
5038.3203 1140819.3 -3086.7275
32159.3 1169064.6 -4714.2237
30432.016 1206056.2 -5250.8307
10898.841 1217769.1 -4673.3133
-2575.0734 1174164.6 -2120.7661
11540.77 1185686.2 -3826.7771
12024.038 1203285.7 -4479.6517
4124.7034 1207859.6 -4058.7152
-5370.8649 1191114.9 -1950.0763
2572.5133 1195229.2 -3277.3211
4090.7513 1203635.5 -3770.5039
1322.2479 1205358.1 -3433.1843
-5940.0273 1200213.5 -1778.5687
-1166.3265 1201438.6 -2804.865
722.51895 1205538.2 -3209.3793
244.0014 1205778 -2911.5506
-5470.0822 1205460.6 -1588.2698
-2345.9627 1205811.5 -2355.0534
-685.55479 1207881 -2626.9047
-321.4147 1207402.6 -2398.1986
-4633.3382 1208680.9 -1319.3298
-2535.2378 1209143.6 -1888.7325
-1114.7756 1209912.5 -2071.532
-483.43675 1209379.8 -1897.7164
-3514.3155 1210685.7 -1001.8932
-2181.8451 1211543.4 -1396.8352
-1121.218 1211642.5 -1530.084
-448.97248 1211159.5 -1387.451
-2315.7004 1211978.1 -664.05547
-1481.6805 1213082.4 -913.73306
-825.76587 1212921.9 -981.66422
-367.26776 1212495 -878.50401
-1128.6619 1212696.2 -301.5113
-762.44236 1213948.5 -416.8504
-459.60992 1213640.8 -438.78802
-235.27673 1213271.7 -368.1052
62.244003 1212858.5 65.285795
-10.48404 1214155.2 78.489835
-82.442074 1213817.8 101.59751
-117.48418 1213447.5 140.47862
1253.6073 1212482.3 431.90724
742.45939 1213716.9 573.5549
295.99486 1213421 641.42646
1.4466097 1213032.5 648.01038
2442.0455 1211551.8 793.95679
1464.6654 1212620.3 1069.6526
665.95231 1212483.1 1182.682
136.86349 1212018 1155.2433
3643.1557 1210050 1130.9428
2170.0611 1210853.2 1551.4621
968.0325 1210986.5 1728.4073
224.45582 1210447.4 1658.9145
4766.0256 1207840.6 1447.1138
2531.6126 1208229.2 2041.4934
971.62976 1209041.5 2265.938
267.44786 1208436.4 2161.7394
5608.7175 1204423.7 1714.2916
2354.7004 1204678.4 2505.3438
556.94899 1206798.1 2816.2558
117.18182 1206232.2 2652.4153
6087.9136 1198992.9 1902.1151
1194.1808 1200094.7 2951.9519
-829.75594 1204246.4 3392.2953
-432.24226 1204385.2 3153.3793
5534.2308 1189733.4 2070.313
-2512.4626 1193686.8 3420.3
-4164.56 1202136.9 3945.423
-1488.3968 1203745.2 3659.5294
2766.1465 1172664.6 2237.4521
-11422.759 1183965.7 3964.6836
-12041.222 1201579.1 4644.1823
-4258.1211 1206023.4 4265.2054
-4794.7196 1139284.6 3203.911
-31929.69 1167205.1 4847.1825
-30344.112 1204134.4 5401.0879
-10978.792 1215691.5 4853.3647
-20622.788 1071255.4 9053.1474
-74863.42 1133622.8 7588.7271
-71041.662 1212148.1 6456.6785
-26817.738 1242877.3 5428.0335
-31708.243 960353.39 27282.963
-137969.47 1043720.4 16902.627
-168103.9 1211383 7925.016
-74148.4 1315811.6 6065.2605
-57833.659 744243.99 79588.097
-225580.03 866608.36 25370.337
-375611.31 1083235.8 10670.458
-226166.81 1532629 -1782.7422
70404.022 726973.21 -12792.725
242888.98 866134.06 -9403.4481
383604.04 1084574.5 -3458.1002
228697.92 1542260.7 -1009.8284
36750.463 923463.83 -10361.996
145247.56 1042367 -5822.7134
171807.42 1211144 -3005.1191
74636.885 1325488.6 -1621.5203
22990.795 1048977.6 -4413.9822
77130.382 1134157.7 -3331.2614
71177.856 1212449 -2359.58
26043.073 1249827.2 -1541.6427
6280.8324 1126129.5 -1976.5949
32739.759 1169593.6 -2025.6096
29755.344 1204702.2 -1887.0068
10122.292 1221222.4 -1349.7731
-1583.7061 1164461.6 -1187.9521
11889.172 1186513.6 -1542.9851
11342.534 1202269.7 -1576.9996
3425.3265 1210374.1 -1170.6009
-4509.2215 1184225.1 -955.10145
2899.1965 1195844.5 -1296.065
3529.465 1202820.4 -1336.1062
737.11958 1207134.2 -1006.0549
-5199.1896 1195325.4 -819.48965
-858.08718 1201786 -1101.8764
278.29413 1204862.3 -1123.0243
-230.97427 1206965.3 -852.47171
-4850.4005 1202121.8 -696.46087
-2063.0478 1205917.9 -918.83252
-1027.3243 1207289.6 -925.95311
-701.62304 1208098.6 -704.77882
-4140.0216 1206536.4 -565.19315
-2296.7749 1209052 -733.1499
-1373.0517 1209392.7 -730.19938
-779.63563 1209688.2 -558.54871
-3146.3168 1209443.1 -424.75845
-1999.0749 1211305.8 -544.52915
-1302.139 1211169.8 -537.83204
-658.77016 1211170.2 -409.74303
-2073.2861 1211364.1 -278.63487
-1355.3256 1212743.9 -353.8831
-933.18649 1212484.2 -345.42159
-497.22679 1212300.1 -260.49845
-1011.5391 1212448.9 -128.28666
-696.59029 1213548.8 -161.97442
-498.28409 1213223.5 -153.1377
-287.60985 1212963 -110.62363
53.747859 1212726.8 23.062034
-7.5951465 1213737.3 30.14481
-54.961654 1213405.1 37.970338
-93.530626 1213109.7 39.607369
1119.4435 1212215.2 174.33858
682.22513 1213320.8 222.14756
389.35392 1213000.9 228.86721
101.52054 1212747.7 189.565
2182.4473 1210898.1 324.48421
1343.4632 1212289.1 413.7261
827.24258 1212039.9 420.53051
314.06637 1211870.6 338.61934
3257.733 1208747.6 470.26683
1991.6693 1210626.6 603.8145
1201.4374 1210505.7 611.8909
480.6412 1210528.5 486.50357
4254.9441 1205616.2 610.19478
2296.427 1208152.4 791.64909
1280.44 1208511.3 802.75508
608.84703 1208837.2 633.3935
4970.8143 1200984.6 740.77514
2073.6387 1204803.5 976.26773
946.72984 1206194.1 996.54151
541.04958 1207041.7 777.07023
5328.2694 1193983.7 862.88129
886.0081 1200464.9 1157.9147
-340.65654 1203556.4 1191.0907
84.495435 1205705.5 921.49668
4653.026 1182700.4 997.38466
-2841.3539 1194329 1350.3754
-3562.4371 1201306.8 1400.9911
-863.95767 1205672.4 1070.9305
1754.0526 1162793.6 1229.3319
-11776.763 1184824.2 1595.1839
-11324.333 1200548.3 1637.6702
-3522.5528 1208706.1 1230.0275
-6060.558 1124391.5 2019.8494
-32522.363 1167766.9 2076.0229
-29640.811 1202768.4 1941.8129
-10170.706 1219329.9 1401.5944
-22679.545 1047294.1 4472.4674
-76712.153 1132265.8 3383.8699
-70874.595 1210289.5 2405.5393
-26004.26 1247660.1 1581.4956
-36305.224 921970.59 10486.871
-144495.39 1040553.9 5893.2748
-171112.41 1208787.9 3039.9363
-74397.944 1322908.1 1641.1953
-69706.223 725929.28 12939.672
-241678.1 864508.24 9516.8219
-382192.71 1082366.1 3493.3062
-227952 1538848.3 1011.1538
-506331.99 460937.7 6042.347
-509519.76 468821.88 13458.859
-508998.72 478024.34 20376.87
-674515.22 519601.85 3854.9045
-671159.25 524441.68 9199.195
-682187 539618.66 12752.978
-898219.42 669138.81 1135.3049
-894220.44 671694.8 2262.8389
-890786.12 675373.37 7885.2534
-1281757 1086031.6 -1082.8419
-1277856.9 1085714.8 -7369.2866
-1260406.9 1073450.3 1252.9993
-448181.86 547985.21 10761.434
-434885.51 542948.79 33848.08
-452537.02 548539.6 36234.128
-482049.1 712555.2 6212.2218
-471257.57 713902.85 11401.274
-498365.17 704243.46 12220.511
-630174.97 947292.86 2434.984
-625100.28 947037.6 4324.6686
-635974.11 940286.6 8109.2554
-1070989.7 1320179.8 -96.687848
-1066639.8 1317769.7 -1998.0438
-1070434.5 1314925.6 5151.1823
-1462566.3 238373.59 -1241.8585
-1470115.8 240254.16 -17479.807
-1378862.4 248613.77 -9314.2878
-1015588.5 420144.77 583.43925
-1013362.8 425589.51 -1798.8043
-1017057.1 427646.43 1977.9708
-795881.41 297393.16 4273.248
-792594.45 306608.49 10993.232
-794776.5 307246.18 11866.961
-637724.49 121180.97 5197.1575
-631173.33 127506.98 44537.718
-685459.14 141095.34 49584.784
-1217983.1 72809.788 505.11097
-1236937.7 73114.814 335.70822
-1070768.8 80237.015 9985.2863
-1125728.3 190163.44 916.40802
-1127221.2 192332.4 2009.245
-1128849.3 215496.45 6250.8869
-947937.89 178809.81 2664.0006
-949142.89 182472.1 4098.5306
-935788.32 197545.02 5497.8468
-823638.89 69078.69 4890.9174
-803536.25 71732.073 7669.8378
-925243.7 78439.885 9439.8326
-1123411.2 19218.216 2590.3236
-1142853.4 17843.066 8002.608
-942031.52 16780.979 17941.81
-1104484.3 78881.842 2734.4265
-1105432.5 79181.674 7635.3254
-1108572.5 87504.903 11826.848
-1023573.5 98963.005 3049.4599
-1027870.6 101705.36 8907.9898
-1017254.4 114993.96 11979.096
-932377.31 49441.303 2910.9801
-921808.45 51491.116 9541.6024
-1044049.8 63978.737 15027.714
-1075810.3 186.03109 3955.6514
-1095687.8 -1973.4053 12538.584
-875423.41 -5940.9642 22991.76
-1074554.2 31664.286 4123.5333
-1073946.6 30678.526 11001.171
-1078240.8 36045.65 14997.131
-1041011 46528.46 4140.1156
-1044853.2 48743.683 11645.351
-1032631.8 59263.824 14903.956
-996171.94 28058.947 3615.6011
-984676.14 30182.429 13252.844
-1124349.8 41372.946 20163.013
-1044649 -8916.8105 4899.6152
-1065083 -11622.801 15782.157
-832333.51 -17688.186 26951.429
-1049916.4 9969.407 5057.9566
-1048539.5 8163.6403 13330.686
-1053667.1 11407.906 17420.665
-1037630.3 21470.396 4879.0737
-1041132.1 23339.537 13284.513
-1028942.5 32452.197 16845.863
-1017116.4 17662.387 4301.9139
-1003692.8 19822.104 14638.603
-1158819.8 30923.443 22512.47
-1019803.4 -13756.635 5651.7173
-1040700.4 -16905.42 18425.474
-800083.22 -24660.11 30378.039
-1027593.6 -334.78265 5785.3102
-1025832 -2764.4704 15221.327
-1031594.5 -1024.4761 19527.551
-1024864.9 9761.3655 5431.7086
-1028312.7 11405.627 14618.05
-1016163.1 19597.206 18568.293
-1016115.7 13183.762 4737.3138
-1001661.1 15410.646 15606.728
-1168075.9 26605.673 24526.748
-996870.36 -16669.818 6307.0939
-1018065 -20212.86 20755.135
-773077.43 -29456.754 33510.716
-1005568.9 -5377.3276 6419.5553
-1003600 -8330.971 16897.593
-1009866.1 -7842.6586 21465.443
-1007245.3 4350.9016 5918.6314
-1010707.7 5848.5812 15831.488
-998647.11 13401.324 20184.216
-1004006.2 11516.621 5098.2234
-988930.76 13836.979 16546.791
-1163323.5 25297.61 26501.24
-973972.5 -18758.831 6909.7361
-995292.74 -22661.692 22887.611
-748764.4 -33253.492 36452.123
-982805.34 -8153.2168 7006.1335
-980730.62 -11564.023 18452.046
-987367.75 -12131.604 23301.181
-986573.71 1901.9786 6375.0622
-990061.9 3299.9087 16990.886
-978125.63 10330.057 21747.253
-985907.88 11282.843 5440.3932
-970439.43 13710.203 17459.391
-1150140.2 25464.853 28420.22
-950191.98 -20363.882 7490.373
-971466.24 -24608.713 24943.482
-725885.61 -36502.478 39312.473
-958826.81 -9779.6995 7566.679
-956728.08 -13614.536 19941.878
-963576.08 -15153.591 25082.326
-963573.2 733.42011 6816.1667
-967089.41 2060.3024 18103.972
-955300.23 8688.3519 23263.138
-964266.35 11616.829 5780.8616
-948653.89 14163.919 18346.228
-1131150.8 26275.681 30290.186
-925133.11 -21810.891 8054.2586
-946179.67 -26387.052 26946.042
-703855.35 -39522.473 42121.378
-933444.18 -10921.312 8120.4235
-931372.39 -15155.074 21430.535
-938309 -17605.672 26862.093
-938655.64 166.99033 7262.4124
-942182.22 1446.0697 19262.756
-930555.73 7736.8162 24812.575
-940058.69 12204.66 6126.5369
-924502.04 14880.105 19341.646
-1107626.1 27403.985 32252.968
-898578.17 -23112.36 8610.7951
-919213.34 -28013.205 28916.558
-682318.21 -42371.501 44904.216
-906640.16 -11869.88 8669.475
-904621.05 -16486.38 22907.266
-911565.08 -19784.733 28634.117
-911870.37 -156.80193 7709.9889
-915351.12 1089.4411 20445.455
-904062.57 7059.6659 26384.285
-913752.43 12976.927 6483.6254
-898381.44 15786.544 20362.725
-1080252.9 28695.277 34229.993
-870502.75 -24454.976 9158.975
-890569.75 -29680.55 30831.161
-661109.9 -45241.658 47647.622
-878243.58 -12620.688 9210.5594
-876314.18 -17613.075 24341.381
-883170.78 -21781.602 30376.763
-883404.54 -310.38552 8161.204
-886817.81 913.78457 21591.23
-875950.43 6592.009 27920.878
-885511.58 13692.727 6842.9917
-870469.14 16641.324 21396.215
-1049253.2 30010.459 36226.352
-840810.41 -25701.514 9710.686
-860168.89 -31244.253 32763.798
-640034.13 -48011.043 50421.356
-848197.51 -13339.938 9757.3732
-846401.07 -18696.479 25802.112
-853065.64 -23702.775 32152.249
-853391.63 -413.81792 8614.6935
-856754.41 796.93292 22754.23
-846242 6200.4573 29483.893
-855334.45 14536.165 7204.5587
-840776.16 17629.459 22426.445
-1014687 31455.815 38235.393
-809526.27 -27086.743 10273.276
-828027.78 -32954.862 34733.625
-619108.21 -50938.419 53251.414
-816576.58 -14188.839 10313.527
-814947.33 -19916.816 27292.802
-821318.73 -25746.632 33966.097
-821531.97 -437.38548 9076.2118
-824827.53 763.0589 23961.386
-814745.82 5883.9916 31101.154
-823401.59 15482.447 7576.8178
-809488.98 18724.641 23499.527
-976687.78 32997.534 40304.56
-776637.43 -28455.946 10850.235
-794136.4 -34656.676 36741.843
-598308.26 -53871.211 56148.602
-783221.27 -14967.449 10883.559
-781790.66 -21072.601 28813.055
-787775.64 -27736.99 35822.596
-787896.96 -562.76818 9553.0106
-791096.65 634.83201 25195.416
-781540.57 5488.8313 32756.124
-789645.91 16322.078 7961.9741
-776536.76 19721.685 24611.393
-935184.12 34484.109 42439.812
-742029.45 -29874.349 11446.692
-758381.6 -36416.131 38825.539
-577535.69 -56907.994 59160.786
-748146.41 -15791.249 11478.593
-746959.65 -22283.619 30396.156
-752443.1 -29791.079 37754.605
-752462.89 -636.5762 10053.87
-755558.7 559.06039 26487.215
-746566.08 5179.6483 34481.774
-753899.42 17277.069 8366.0645
-741749.91 20839.691 25789.837
-890043.37 36130.892 44678.672
-705562.22 -31353.146 12083.228
-720636.72 -38251.355 41018.536
-556691.49 -60060.898 62330.646
-711238.9 -16550.356 12103.54
-710349.71 -23445.434 32057.354
-715212.89 -31825.21 39789.519
-715115.21 -635.55439 10582.002
-718105.4 566.97892 27848.987
-709697.66 4946.5121 36303.373
-716144.23 18286.794 8798.9316
-705119.01 22024.881 27045.591
-841254.38 37885.56 47045.524
-667027.93 -32952.094 12778.068
-680730.62 -40223.25 43384.002
-535645.17 -63432.091 65744.109
-672361.09 -17359.987 12783.669
-671851.37 -24675.936 33839.762
-675940.42 -33953.343 41973.574
-675793.94 -630.29906 11159.239
-678699.27 585.69793 29324.123
-670849 4765.7363 38269.549
-676228.9 19393.853 9272.0244
-666516.23 23318.577 28422.583
-788662.87 39818.529 49610.697
-626092.73 -34759.776 13583.758
-638391.5 -42428.676 46062.434
-514234.94 -67136.399 69569.653
-631231.34 -18144.218 13566.617
-631270.71 -25921.34 35861.139
-634377.33 -36140.981 44431.369
-634353.64 -535.30893 11826.586
-637276.9 689.35767 30988.321
-629869.27 4703.5603 40468.035
-633888.77 20641.572 9823.6463
-625731.96 24762.817 29993.839
-732016.09 42001.916 52478.966
-582176.55 -37015.596 14573.616
-592994.12 -45049.084 49363.905
-492218.85 -71419.247 74213.707
-587205.76 -18927.117 14546.245
-588081.24 -27138.846 38423.555
-590181.98 -38412.168 47500.394
-590315.06 39.838463 12676.219
-593514.9 1263.7511 33119.11
-586537.95 5001.7092 43205.971
-588872.36 22483.097 10534.192
-582619.78 26784.243 31978.344
-671000.96 44782.146 55938.219
-534341.82 -40609.446 15727.439
-543244.1 -48958.838 53439.821
-467435.3 -75647.332 80344.298
-539458.12 -20287.04 15683.679
-540879.25 -28984.587 42219.882
-543523.52 -39003.428 52485.594
-541106.43 2277.114 13688.348
-544229.32 3225.1399 36580.848
-539860.92 7924.4729 47945.48
-541850.13 26947.539 11477.39
-537814.36 31217.427 34572.359
-605990.37 50294.111 60646.023
-482355.56 -41391.396 17421.936
-491096.21 -49766.767 56389.88
-443221.67 -79297.236 81939.495
-487704.82 -20954.706 17326.35
-491245.82 -29764.169 45083.347
-496190.02 -44773.529 53949.588
-488585.8 296.56232 15187.915
-492927.55 1183.9743 39162.963
-494404.62 327.88602 49399.738
-490680.12 25599.81 12764.977
-490596.47 29899.366 36817.937
-533525.84 46064.903 62345.174
-412559.12 -34523.505 29619.004
-455178.72 -47078.989 63549.345
-411491.47 -68625.264 75453.279
-435605.88 -15183.765 21518.18
-446482.62 -28099.568 50646.903
-460284.92 -34733.968 53927.595
-436661.03 -4143.3911 18987.287
-447022.53 -828.69724 44824.06
-461181.87 -4036.4231 49786.713
-424824.48 19482.69 21542.057
-453168.63 26440.531 42939.39
-452431.79 38941.256 57761.846
508999.69 478025.1 20377.07
682188.43 539619.5 12753.207
890788.11 675374.54 7885.4492
1260409.9 1073452.7 1253.0254
452537.58 548540.19 36234.298
498365.73 704244.26 12220.681
635974.97 940288.25 8109.2831
1070436.9 1314928.8 5150.8848
509520.71 468822.68 13459.438
671160.6 524442.57 9200.0086
894222.41 671695.85 2263.9879
1277859.7 1085716.7 -7368.3371
434886.04 542949.38 33848.539
471258.19 713903.59 11401.789
625101.18 947038.58 4325.0209
1066641.4 1317771.3 -1998.1255
506332.83 460938.65 6043.1874
674515.97 519603.12 3856.3047
898219.77 669139.46 1137.9514
1281758.2 1086032.4 -1079.1016
448182.28 547985.77 10762.047
482049.57 712555.85 6212.993
630175.42 947292.97 2435.9805
1070989.5 1320179 -95.351674
-70404.107 726972.76 -12792.137
-58678.983 745087.8 -78570.32
-25362.31 641154.63 -82203.065
-242888.84 866132.78 -9402.5925