# vtk DataFile Version 2.0
Mesh3D
ASCII

DATASET UNSTRUCTURED_GRID
POINTS 45882 float
7.875  -3.26193  0.75
7.625  -3.15838  0.75
7.625  -2.90571  0.75
7.875  -3.00098  0.75
7.875  -3.26193  0.5
7.625  -3.15838  0.5
7.625  -2.90571  0.5
7.875  -3.00098  0.5
7.75  -3.21016  0.75
7.625  -3.03204  0.75
7.75  -2.95334  0.75
7.875  -3.13145  0.75
7.875  -3.26193  0.625
7.625  -3.15838  0.625
7.625  -2.90571  0.625
7.875  -3.00098  0.625
7.75  -3.21016  0.5
7.625  -3.03204  0.5
7.75  -2.95334  0.5
7.875  -3.13145  0.5
7.75  -3.08175  0.625
7.75  -3.08175  0.75
7.75  -3.08175  0.5
7.875  -3.13145  0.625
7.625  -3.03204  0.625
7.75  -3.21016  0.625
7.75  -2.95334  0.625
7.375  -3.05483  0.75
7.375  -2.81044  0.75
7.375  -3.05483  0.5
7.375  -2.81044  0.5
7.5  -3.1066  0.75
7.375  -2.93263  0.75
7.5  -2.85807  0.75
7.375  -3.05483  0.625
7.375  -2.81044  0.625
7.5  -3.1066  0.5
7.375  -2.93263  0.5
7.5  -2.85807  0.5
7.5  -2.98234  0.625
7.5  -2.98234  0.75
7.5  -2.98234  0.5
7.375  -2.93263  0.625
7.5  -3.1066  0.625
7.5  -2.85807  0.625
7.125  -2.95127  0.75
7.125  -2.71517  0.75
7.125  -2.95127  0.5
7.125  -2.71517  0.5
7.25  -3.00305  0.75
7.125  -2.83322  0.75
7.25  -2.7628  0.75
7.125  -2.95127  0.625
7.125  -2.71517  0.625
7.25  -3.00305  0.5
7.125  -2.83322  0.5
7.25  -2.7628  0.5
7.25  -2.88293  0.625
7.25  -2.88293  0.75
7.25  -2.88293  0.5
7.125  -2.83322  0.625
7.25  -3.00305  0.625
7.25  -2.7628  0.625
6.875  -2.84772  0.75
6.875  -2.6199  0.75
6.875  -2.84772  0.5
6.875  -2.6199  0.5
7  -2.89949  0.75
6.875  -2.73381  0.75
7  -2.66754  0.75
6.875  -2.84772  0.625
6.875  -2.6199  0.625
7  -2.89949  0.5
6.875  -2.73381  0.5
7  -2.66754  0.5
7  -2.78352  0.625
7  -2.78352  0.75
7  -2.78352  0.5
6.875  -2.73381  0.625
7  -2.89949  0.625
7  -2.66754  0.625
7.625  -2.65304  0.75
7.875  -2.74002  0.75
7.625  -2.65304  0.5
7.875  -2.74002  0.5
7.625  -2.77937  0.75
7.75  -2.69653  0.75
7.875  -2.8705  0.75
7.625  -2.65304  0.625
7.875  -2.74002  0.625
7.625  -2.77937  0.5
7.75  -2.69653  0.5
7.875  -2.8705  0.5
7.75  -2.82494  0.625
7.75  -2.82494  0.75
7.75  -2.82494  0.5
7.875  -2.8705  0.625
7.625  -2.77937  0.625
7.75  -2.69653  0.625
7.375  -2.56605  0.75
7.375  -2.56605  0.5
7.375  -2.68825  0.75
7.5  -2.60955  0.75
7.375  -2.56605  0.625
7.375  -2.68825  0.5
7.5  -2.60955  0.5
7.5  -2.73381  0.625
7.5  -2.73381  0.75
7.5  -2.73381  0.5
7.375  -2.68825  0.625
7.5  -2.60955  0.625
7.125  -2.47907  0.75
7.125  -2.47907  0.5
7.125  -2.59712  0.75
7.25  -2.52256  0.75
7.125  -2.47907  0.625
7.125  -2.59712  0.5
7.25  -2.52256  0.5
7.25  -2.64268  0.625
7.25  -2.64268  0.75
7.25  -2.64268  0.5
7.125  -2.59712  0.625
7.25  -2.52256  0.625
6.875  -2.39208  0.75
6.875  -2.39208  0.5
6.875  -2.50599  0.75
7  -2.43558  0.75
6.875  -2.39208  0.625
6.875  -2.50599  0.5
7  -2.43558  0.5
7  -2.55156  0.625
7  -2.55156  0.75
7  -2.55156  0.5
6.875  -2.50599  0.625
7  -2.43558  0.625
7.625  -2.40037  0.75
7.875  -2.47907  0.75
7.625  -2.40037  0.5
7.875  -2.47907  0.5
7.625  -2.5267  0.75
7.75  -2.43972  0.75
7.875  -2.60955  0.75
7.625  -2.40037  0.625
7.875  -2.47907  0.625
7.625  -2.5267  0.5
7.75  -2.43972  0.5
7.875  -2.60955  0.5
7.75  -2.56812  0.625
7.75  -2.56812  0.75
7.75  -2.56812  0.5
7.875  -2.60955  0.625
7.625  -2.5267  0.625
7.75  -2.43972  0.625
7.375  -2.32167  0.75
7.375  -2.32167  0.5
7.375  -2.44386  0.75
7.5  -2.36102  0.75
7.375  -2.32167  0.625
7.375  -2.44386  0.5
7.5  -2.36102  0.5
7.5  -2.48528  0.625
7.5  -2.48528  0.75
7.5  -2.48528  0.5
7.375  -2.44386  0.625
7.5  -2.36102  0.625
7.125  -2.24297  0.75
7.125  -2.24297  0.5
7.125  -2.36102  0.75
7.25  -2.28232  0.75
7.125  -2.24297  0.625
7.125  -2.36102  0.5
7.25  -2.28232  0.5
7.25  -2.40244  0.625
7.25  -2.40244  0.75
7.25  -2.40244  0.5
7.125  -2.36102  0.625
7.25  -2.28232  0.625
6.875  -2.16427  0.75
6.875  -2.16427  0.5
6.875  -2.27817  0.75
7  -2.20362  0.75
6.875  -2.16427  0.625
6.875  -2.27817  0.5
7  -2.20362  0.5
7  -2.3196  0.625
7  -2.3196  0.75
7  -2.3196  0.5
6.875  -2.27817  0.625
7  -2.20362  0.625
7.625  -2.1477  0.75
7.875  -2.21811  0.75
7.625  -2.1477  0.5
7.875  -2.21811  0.5
7.625  -2.27403  0.75
7.75  -2.18291  0.75
7.875  -2.34859  0.75
7.625  -2.1477  0.625
7.875  -2.21811  0.625
7.625  -2.27403  0.5
7.75  -2.18291  0.5
7.875  -2.34859  0.5
7.75  -2.31131  0.625
7.75  -2.31131  0.75
7.75  -2.31131  0.5
7.875  -2.34859  0.625
7.625  -2.27403  0.625
7.75  -2.18291  0.625
7.375  -2.07728  0.75
7.375  -2.07728  0.5
7.375  -2.19947  0.75
7.5  -2.11249  0.75
7.375  -2.07728  0.625
7.375  -2.19947  0.5
7.5  -2.11249  0.5
7.5  -2.23675  0.625
7.5  -2.23675  0.75
7.5  -2.23675  0.5
7.375  -2.19947  0.625
7.5  -2.11249  0.625
7.125  -2.00686  0.75
7.125  -2.00686  0.5
7.125  -2.12492  0.75
7.25  -2.04207  0.75
7.125  -2.00686  0.625
7.125  -2.12492  0.5
7.25  -2.04207  0.5
7.25  -2.16219  0.625
7.25  -2.16219  0.75
7.25  -2.16219  0.5
7.125  -2.12492  0.625
7.25  -2.04207  0.625
6.875  -1.93645  0.75
6.875  -1.93645  0.5
6.875  -2.05036  0.75
7  -1.97166  0.75
6.875  -1.93645  0.625
6.875  -2.05036  0.5
7  -1.97166  0.5
7  -2.08764  0.625
7  -2.08764  0.75
7  -2.08764  0.5
6.875  -2.05036  0.625
7  -1.97166  0.625
7.625  -1.89503  0.75
7.875  -1.95716  0.75
7.625  -1.89503  0.5
7.875  -1.95716  0.5
7.625  -2.02136  0.75
7.75  -1.92609  0.75
7.875  -2.08764  0.75
7.625  -1.89503  0.625
7.875  -1.95716  0.625
7.625  -2.02136  0.5
7.75  -1.92609  0.5
7.875  -2.08764  0.5
7.75  -2.0545  0.625
7.75  -2.0545  0.75
7.75  -2.0545  0.5
7.875  -2.08764  0.625
7.625  -2.02136  0.625
7.75  -1.92609  0.625
7.375  -1.8329  0.75
7.375  -1.8329  0.5
7.375  -1.95509  0.75
7.5  -1.86396  0.75
7.375  -1.8329  0.625
7.375  -1.95509  0.5
7.5  -1.86396  0.5
7.5  -1.98823  0.625
7.5  -1.98823  0.75
7.5  -1.98823  0.5
7.375  -1.95509  0.625
7.5  -1.86396  0.625
7.125  -1.77076  0.75
7.125  -1.77076  0.5
7.125  -1.88881  0.75
7.25  -1.80183  0.75
7.125  -1.77076  0.625
7.125  -1.88881  0.5
7.25  -1.80183  0.5
7.25  -1.92195  0.625
7.25  -1.92195  0.75
7.25  -1.92195  0.5
7.125  -1.88881  0.625
7.25  -1.80183  0.625
6.875  -1.70863  0.75
6.875  -1.70863  0.5
6.875  -1.82254  0.75
7  -1.7397  0.75
6.875  -1.70863  0.625
6.875  -1.82254  0.5
7  -1.7397  0.5
7  -1.85568  0.625
7  -1.85568  0.75
7  -1.85568  0.5
6.875  -1.82254  0.625
7  -1.7397  0.625
7.625  -1.64236  0.75
7.875  -1.6962  0.75
7.625  -1.64236  0.5
7.875  -1.6962  0.5
7.625  -1.76869  0.75
7.75  -1.66928  0.75
7.875  -1.82668  0.75
7.625  -1.64236  0.625
7.875  -1.6962  0.625
7.625  -1.76869  0.5
7.75  -1.66928  0.5
7.875  -1.82668  0.5
7.75  -1.79769  0.625
7.75  -1.79769  0.75
7.75  -1.79769  0.5
7.875  -1.82668  0.625
7.625  -1.76869  0.625
7.75  -1.66928  0.625
7.375  -1.58851  0.75
7.375  -1.58851  0.5
7.375  -1.7107  0.75
7.5  -1.61543  0.75
7.375  -1.58851  0.625
7.375  -1.7107  0.5
7.5  -1.61543  0.5
7.5  -1.7397  0.625
7.5  -1.7397  0.75
7.5  -1.7397  0.5
7.375  -1.7107  0.625
7.5  -1.61543  0.625
7.125  -1.53466  0.75
7.125  -1.53466  0.5
7.125  -1.65271  0.75
7.25  -1.56159  0.75
7.125  -1.53466  0.625
7.125  -1.65271  0.5
7.25  -1.56159  0.5
7.25  -1.68171  0.625
7.25  -1.68171  0.75
7.25  -1.68171  0.5
7.125  -1.65271  0.625
7.25  -1.56159  0.625
6.875  -1.48081  0.75
6.875  -1.48081  0.5
6.875  -1.59472  0.75
7  -1.50774  0.75
6.875  -1.48081  0.625
6.875  -1.59472  0.5
7  -1.50774  0.5
7  -1.62372  0.625
7  -1.62372  0.75
7  -1.62372  0.5
6.875  -1.59472  0.625
7  -1.50774  0.625
7.625  -1.38969  0.75
7.875  -1.43525  0.75
7.625  -1.38969  0.5
7.875  -1.43525  0.5
7.625  -1.51602  0.75
7.75  -1.41247  0.75
7.875  -1.56573  0.75
7.625  -1.38969  0.625
7.875  -1.43525  0.625
7.625  -1.51602  0.5
7.75  -1.41247  0.5
7.875  -1.56573  0.5
7.75  -1.54087  0.625
7.75  -1.54087  0.75
7.75  -1.54087  0.5
7.875  -1.56573  0.625
7.625  -1.51602  0.625
7.75  -1.41247  0.625
7.375  -1.34412  0.75
7.375  -1.34412  0.5
7.375  -1.46632  0.75
7.5  -1.3669  0.75
7.375  -1.34412  0.625
7.375  -1.46632  0.5
7.5  -1.3669  0.5
7.5  -1.49117  0.625
7.5  -1.49117  0.75
7.5  -1.49117  0.5
7.375  -1.46632  0.625
7.5  -1.3669  0.625
7.125  -1.29856  0.75
7.125  -1.29856  0.5
7.125  -1.41661  0.75
7.25  -1.32134  0.75
7.125  -1.29856  0.625
7.125  -1.41661  0.5
7.25  -1.32134  0.5
7.25  -1.44146  0.625
7.25  -1.44146  0.75
7.25  -1.44146  0.5
7.125  -1.41661  0.625
7.25  -1.32134  0.625
6.875  -1.253  0.75
6.875  -1.253  0.5
6.875  -1.3669  0.75
7  -1.27578  0.75
6.875  -1.253  0.625
6.875  -1.3669  0.5
7  -1.27578  0.5
7  -1.39176  0.625
7  -1.39176  0.75
7  -1.39176  0.5
6.875  -1.3669  0.625
7  -1.27578  0.625
7.625  -1.13702  0.75
7.875  -1.1743  0.75
7.625  -1.13702  0.5
7.875  -1.1743  0.5
7.625  -1.26335  0.75
7.75  -1.15566  0.75
7.875  -1.30477  0.75
7.625  -1.13702  0.625
7.875  -1.1743  0.625
7.625  -1.26335  0.5
7.75  -1.15566  0.5
7.875  -1.30477  0.5
7.75  -1.28406  0.625
7.75  -1.28406  0.75
7.75  -1.28406  0.5
7.875  -1.30477  0.625
7.625  -1.26335  0.625
7.75  -1.15566  0.625
7.375  -1.09974  0.75
7.375  -1.09974  0.5
7.375  -1.22193  0.75
7.5  -1.11838  0.75
7.375  -1.09974  0.625
7.375  -1.22193  0.5
7.5  -1.11838  0.5
7.5  -1.24264  0.625
7.5  -1.24264  0.75
7.5  -1.24264  0.5
7.375  -1.22193  0.625
7.5  -1.11838  0.625
7.125  -1.06246  0.75
7.125  -1.06246  0.5
7.125  -1.18051  0.75
7.25  -1.0811  0.75
7.125  -1.06246  0.625
7.125  -1.18051  0.5
7.25  -1.0811  0.5
7.25  -1.20122  0.625
7.25  -1.20122  0.75
7.25  -1.20122  0.5
7.125  -1.18051  0.625
7.25  -1.0811  0.625
6.875  -1.02518  0.75
6.875  -1.02518  0.5
6.875  -1.13909  0.75
[...]
CELL_DATA 4528
VECTORS current_real float
42271.129 1068592 -137005.37
320645.95 1476423.4 -41416.875
598956.98 1805324.3 -25906.02
363477.32 2617251.2 -9796.6544
50454.056 1202440 -56016.127
252689.73 1751063.6 -34213.382
310744.66 1989508 -20665.155
143825.79 2273773 -19022.895
41145.339 1432917.1 -31145.04
148841.47 1891408.3 -19124.997
136497.58 2001332.7 -16410.178
58975.868 2135121.6 -15770.774
11504.457 1626977.4 -21130.83
71633.764 1943749.3 -14519.636
65749.072 1994251.2 -13726.659
29824.007 2076749.1 -13547.112
-2445.169 1751558.1 -17671.972
33489.909 1972050.8 -12199.179
32357.883 1993773.6 -11653.786
16512.461 2049433.5 -11591.951
-7924.4556 1834657.7 -15148.347
15545.489 1988648.2 -10326.16
16817.687 1997503 -9773.3841
10132.929 2036332.3 -9762.891
-9315.867 1893488.3 -12777.121
7096.1538 1999619 -8656.8853
9361.5902 2002980.2 -8217.3442
6870.6773 2029740.9 -8192.034
-8789.7109 1936901.1 -10555.968
3183.5265 2007359.8 -7111.594
5371.2549 2008567.5 -6678.8939
4698.7428 2026389 -6690.8977
-7527.6922 1969241 -8353.3157
1219.3672 2013072.2 -5613.6295
3171.3482 2013356.8 -5238.7533
3262.2021 2024777 -5254.5009
-5756.5738 1992807.3 -6177.6245
336.22092 2017154.5 -4126.0593
1823.2966 2017234.9 -3853.5053
2214.1089 2023985.8 -3834.2397
-3789.8649 2008984.7 -4039.582
115.00387 2019780.6 -2688.7633
1018.0766 2020030.6 -2481.2008
1302.5756 2023603.7 -2434.5248
-1825.7577 2018379.9 -1905.4341
-5.8789787 2021227.2 -1250.4358
378.23666 2021636.9 -1134.2079
491.95098 2023426.2 -1046.6318
158.87415 2021231.9 215.83856
-35.939876 2021578.9 175.48142
-222.06491 2022060.7 204.08943
-332.60221 2023380 331.52391
2144.2362 2017627.2 2336.9956
-64.368725 2020856.9 1601.0525
-819.56895 2021250.3 1541.621
-1154.3926 2023474.3 1707.7646
4110.5942 2007480 4470.8418
-180.29593 2019041.7 3038.3843
-1450.9507 2019258.9 2886.3825
-1956.6665 2023694.9 3089.8991
6081.2424 1990552 6608.3904
-392.90756 2016050.4 4474.0841
-2241.6844 2016080.8 4255.0234
-2854.0709 2024110.2 4480.0121
7858.4035 1966237.5 8783.4253
-1262.9217 2011608.3 5959.3889
-3568.2893 2011824.3 5634.9942
-3881.8176 2024918.8 5886.7708
9129.6255 1933153.5 10985.271
-3207.3772 2005544 7454.5105
-5738.0181 2006661.2 7068.4476
-5291.0538 2026526.3 7305.5766
9669.8352 1889003.9 13205.383
-7090.022 1997462.8 8996.3491
-9685.6482 2000704.4 8598.6082
-7427.0043 2029842.8 8784.8075
8302.1505 1829453 15575.337
-15489.032 1986169.7 10661.406
-17078.043 1994859.8 10144.714
-10641.433 2036355.4 10328.873
2865.86 1745672.1 18098.249
-33341.682 1969281.2 12529.629
-32513.816 1990758.4 12012.9
-16953.137 2049311.9 12124.8
-11000.149 1620508 21560.577
-71304.56 1940752 14845.68
-65715.173 1990845.9 14070
-30158.608 2076372.7 14038.141
-40480.817 1426097.2 31599.199
-148144.83 1888338.9 19452.82
-136086 1997489.7 16730.776
-59125.391 2134283.7 16201.988
-49509.184 1195810.8 56603.387
-251303.49 1748315.8 34582.731
-309482.99 1985268 20941.424
-143517.88 2271994.9 19357.093
-40218.452 1065003.7 138832.22
-317803.84 1474002.7 41932.204
-596166.68 1801603.5 26166.482
-361947.18 2613112.6 9763.0417
97798.784 1241813.9 -130951.3
378326.22 1446979.5 -41785.219
628529.51 1809034.2 -17651.212
378234.03 2560290.9 2711.7955
53684.199 1602278.6 -45007.665
231333.96 1742525.9 -27879.355
281397.45 2022885.5 -13057.211
123984.56 2197707.4 -9993.2475
34940.709 1787769.5 -14852.778
125518.8 1892560.4 -12423.045
118894.28 2023840.2 -10546.924
44721.692 2075413.7 -8814.3779
8397.2005 1901365.5 -5144.5458
53598.833 1948441.1 -7857.0395
50720.027 2010093.7 -8751.3846
18164.735 2029615.1 -7788.8555
-4291.789 1956941 -3534.6101
19234.617 1976143.7 -6377.9619
20040.064 2005476.2 -7466.0862
6874.5057 2013099.3 -6764.5254
-8951.4415 1985191.5 -3250.1272
4287.5222 1992048.7 -5462.2018
6817.9189 2006059.2 -6284.1732
2203.7465 2008930.1 -5721.9738
-9900.0455 2000355.8 -2964.2812
-1943.8774 2002397.6 -4674.775
1204.1982 2009230.3 -5348.9655
406.66899 2009630 -4852.5844
-9116.8037 2009101 -2647.1163
-3909.9379 2009685.8 -3925.0889
-1142.5913 2013135.1 -4378.1744
-535.69117 2012337.6 -3996.9977
-7722.2303 2014468.1 -2198.883
-4225.3963 2015239.4 -3147.8876
-1857.9593 2016520.8 -3452.5533
-805.72792 2015633.1 -3162.8607
-5857.1925 2017809.6 -1669.822
-3636.4085 2019239 -2328.0586
-1868.6967 2019404.2 -2550.14
-748.28747 2018599.2 -2312.4183
-3859.5006 2019963.4 -1106.7591
-2469.4674 2021804 -1522.8884
-1376.2765 2021536.5 -1636.107
-612.11293 2020825 -1464.1733
-1881.1032 2021160.3 -502.51883
-1270.7373 2023247.5 -694.75066
-766.01653 2022734.7 -731.31336
-392.12788 2022119.5 -613.50867
103.74001 2021430.9 108.80966
-17.473401 2023592.1 130.81639
-137.40346 2023029.7 169.32919
-195.80697 2022412.6 234.13104
2089.3455 2020803.9 719.8454
1237.4323 2022861.4 955.92484
493.32477 2022368.3 1069.0441
2.4110161 2021720.9 1080.0173
4070.0758 2019253 1323.2613
2441.1091 2021033.8 1782.7544
1109.9205 2020805.1 1971.1367
228.10581 2020030.1 1925.4054
6071.9262 2016750 1884.9047
3616.7685 2018088.7 2585.7702
1613.3875 2018310.8 2880.6789
374.09303 2017412.4 2764.8574
7943.3759 2013067.7 2411.8563
4219.3543 2013715.4 3402.489
1619.3829 2015069.2 3776.5634
445.74643 2014060.6 3602.8989
9347.8625 2007372.9 2857.1527
3924.5007 2007797.4 4175.573
928.24831 2011330.2 4693.7596
195.30303 2010387.1 4420.6921
10146.523 1998321.5 3170.1919
1990.3013 2000157.9 4919.9199
-1382.9266 2007077.3 5653.8256
-720.40377 2007308.6 5255.6321
9223.718 1982889 3450.5217
-4187.4377 1989478 5700.5
-6940.9334 2003561.6 6575.705
-2480.6613 2006241.9 6099.2157
4610.2442 1954441 3729.0868
-19037.931 1973276.2 6607.806
-20068.703 2002631.9 7740.3038
-7096.8685 2010039 7108.6756
-7991.1994 1898807.6 5339.8516
-53216.15 1945341.8 8078.6375
-50573.52 2006890.7 9001.8131
-18297.986 2026152.4 8088.9411
-34371.313 1785425.7 15088.579
-124772.37 1889371.3 12647.878
-118402.77 2020246.9 10761.131
-44696.23 2071462.2 9046.7226
-52847.071 1600589 45471.605
-229949.12 1739534 28171.045
-280173.16 2018971.7 13208.36
-123580.67 2193019.4 10108.767
-96389.431 1240406.6 132646.83
-375966.72 1444347.3 42283.895
-626018.85 1805393.1 17784.096
-376944.68 2554381.7 -2971.237
117340.04 1211622 -21321.208
404814.96 1443556.8 -15672.414
639340.07 1807624.1 -5763.5003
381163.19 2570434.5 -1683.0473
61250.771 1539106.4 -17269.994
242079.26 1737278.4 -9704.5224
286345.7 2018573.4 -5008.5319
124394.81 2209147.7 -2702.5338
38317.991 1748296 -7356.6371
128550.64 1890262.8 -5552.1023
118629.76 2020748.4 -3932.6333
43405.121 2083045.4 -2569.4044
10468.054 1876882.5 -3294.3248
54566.264 1949322.7 -3376.016
49592.24 2007837 -3145.0113
16870.487 2035370.7 -2249.6218
-2639.5102 1940769.4 -1979.9201
19815.287 1977522.7 -2571.6418
18904.224 2003782.8 -2628.3327
5708.8774 2017290.1 -1951.0016
-7515.3692 1973708.5 -1591.8357
4831.9942 1993074.2 -2160.1084
5882.4417 2004700.7 -2226.8437
1228.5326 2011890.3 -1676.7582
-8665.316 1992209 -1365.8161
-1430.1453 2002976.7 -1836.4606
463.82355 2008103.8 -1871.7071
-384.95712 2011608.9 -1420.7862
-8084.0008 2003536.3 -1160.7681
-3438.4129 2009863.2 -1531.3875
-1712.2072 2012149.3 -1543.2552
-1169.3717 2013497.6 -1174.6314
-6900.0359 2010893.9 -941.98858
-3827.9582 2015086.7 -1221.9165
-2288.4194 2015654.5 -1216.999
-1299.3927 2016147 -930.91452
-5243.8614 2015738.4 -707.93075
-3331.7915 2018843 -907.54858
-2170.2317 2018616.3 -896.38674
-1097.9503 2018617 -682.90505
-3455.4769 2018940.1 -464.39144
-2258.8761 2021239.8 -589.80517
-1555.3108 2020807 -575.70266
-828.71132 2020500.2 -434.16408
-1685.8985 2020748.1 -213.8111
-1160.9838 2022581.3 -269.95737
-830.47349 2022039.2 -255.22951
-479.34974 2021604.9 -184.37271
89.579764 2021211.4 38.436724
-12.658578 2022895.6 50.241349
-91.602757 2022341.9 63.283897
-155.88438 2021849.6 66.012282
1865.7391 2020358.6 290.5643
1137.0419 2022201.3 370.24593
648.92321 2021668.2 381.44535
169.20091 2021246.1 315.94167
3637.4122 2018163.4 540.80702
2239.1053 2020481.8 689.5435
1378.7376 2020066.5 700.88418
523.44395 2019784.3 564.36556
5429.5551 2014579.3 783.77806
3319.4488 2017711 1006.3575
2002.3957 2017509.5 1019.8182
801.06867 2017547.5 810.83929
7091.5735 2009360.3 1016.9913
3827.3783 2013587.3 1319.4152
2134.0667 2014185.5 1337.9251
1014.745 2014728.7 1055.6558
8284.6906 2001641 1234.6252
3456.0644 2008005.8 1627.1129
1577.8831 2010323.6 1660.9025
901.7493 2011736.1 1295.1171
8880.4491 1989972.8 1438.1355
1476.6802 2000774.8 1929.8579
-567.7609 2005927.3 1985.1512
140.82573 2009509.2 1535.8278
7755.0433 1971167.4 1662.3078
-4735.5898 1990548.4 2250.6257
-5937.3952 2002178 2334.9852
-1439.9295 2009454.1 1784.8841
2923.421 1937989.3 2048.8864
-19627.938 1974707 2658.6398
-18873.889 2000913.9 2729.4503
-5870.9213 2014510.1 2050.0459
-10100.93 1873985.9 3366.4157
-54203.939 1946278.2 3460.0381
-49401.352 2004614 3236.3548
-16951.176 2032216.4 2335.9907
-37799.241 1745490.2 7454.1124
-127853.59 1887109.6 5639.7832
-118124.32 2017149.1 4009.2321
-43340.433 2079433.5 2635.826
-60508.707 1536617.6 17478.118
-240825.64 1734256.4 9822.1246
-285187.35 2014646.5 5066.5606
-123996.57 2204846.8 2735.3254
-116177.04 1209882.1 21566.121
-402796.83 1440847.1 15861.37
-636987.84 1803943.5 5822.177
-379920 2564747.2 1685.2564
-843886.66 768229.49 10070.578
-849199.6 781369.8 22431.432
-848331.21 796707.24 33961.449
-1124192 866003.08 6424.8408
-1118598.8 874069.46 15331.992
-1136978.3 899364.44 21254.963
-1497032.4 1115231.3 1892.1748
-1490367.4 1119491.3 3771.3981
-1484643.5 1125622.3 13142.089
-2136261.6 1810052.7 -1804.7365
-2129761.4 1809524.6 -12282.144
-2100678.2 1789083.9 2088.3321
-746969.76 913308.68 17935.723
-724809.19 904914.65 56413.467
-754228.36 914232.66 60390.213
-803415.17 1187592 10353.703
-785429.29 1189838.1 19002.124
-830608.62 1173739.1 20367.518
-1050291.6 1578821.4 4058.3066
-1041833.8 1578396 7207.781
-1059956.9 1567144.3 13515.426
-1784982.8 2200299.6 -161.14641
-1777733 2196282.8 -3330.0731
-1784057.4 2191542.6 8585.3038
-2437610.5 397289.31 -2069.7642
-2450193 400423.6 -29133.012
-2298104.1 414356.28 -15523.813
-1692647.5 700241.29 972.39875
-1688938 709315.86 -2998.0072
-1695095.1 712744.05 3296.618
-1326469 495655.27 7122.08
-1320990.8 511014.15 18322.053
-1324627.5 512076.96 19778.269
-1062874.1 201968.29 8661.9292
-1051955.6 212511.64 74229.53
-1142431.9 235158.91 82641.307
-2029971.8 121349.65 841.85161
-2061562.9 121858.02 559.51369
-1784614.6 133728.36 16642.144
-1876213.9 316939.07 1527.3467
-1878702.1 320553.99 3348.7417
-1881415.6 359160.74 10418.145
-1579896.5 298016.35 4440.001
-1581904.8 304120.17 6830.8843
-1559647.2 329241.71 9163.0781
-1372731.5 115131.15 8151.5291
-1339227.1 119553.46 12783.063
-1542072.8 130733.14 15733.054
-1872352 32030.36 4317.206
-1904755.7 29738.444 13337.68
-1570052.5 27968.299 29903.017
-1840807.2 131469.74 4557.3775
-1842387.5 131969.46 12725.542
-1847620.9 145841.5 19711.413
-1705955.8 164938.34 5082.4332
-1713117.6 169508.93 14846.65
-1695424.1 191656.6 19965.16
-1553962.2 82402.172 4851.6336
-1536347.4 85818.526 15902.671
-1740083 106631.23 25046.19
-1793017.2 310.05181 6592.7523
-1826146.3 -3289.0088 20897.64
-1459039 -9901.607 38319.601
-1790923.7 52773.81 6872.5555
-1789911 51130.876 18335.285
-1797068 60076.083 24995.218
-1735018.3 77547.433 6900.1927
-1741422 81239.472 19408.919
-1721052.9 98773.039 24839.926
-1660286.6 46764.912 6026.0018
-1641126.9 50304.048 22088.073
-1873916.3 68954.91 33605.022
-1741081.7 -14861.351 8166.0253
-1775138.4 -19371.335 26303.596
-1387222.5 -29480.31 44919.049
-1749860.7 16615.678 8429.9276
-1747565.8 13606.067 22217.809
-1756111.8 19013.177 29034.441
-1729383.8 35783.993 8131.7895
-1735220.2 38899.228 22140.856
-1714904.2 54086.995 28076.438
-1695194.1 29437.312 7169.8565
-1672821.4 33036.84 24397.671
-1931366.3 51539.071 37520.783
-1699672.3 -22927.726 9419.5288
-1734500.6 -28175.701 30709.124
-1333472 -41100.183 50630.066
-1712656.1 -557.97108 9642.1837
-1709720 -4607.4507 25368.878
-1719324.2 -1707.4602 32545.918
-1708108.1 16268.943 9052.8476
-1713854.5 19009.379 24363.417
-1693605.2 32662.01 30947.155
-1693526.1 21972.936 7895.5229
-1669435.1 25684.409 26011.213
-1946793.2 44342.788 40877.913
-1661450.6 -27783.03 10511.823
-1696774.9 -33688.101 34591.892
-1288462.4 -49094.591 55851.193
-1675948.1 -8962.2126 10699.259
-1672666.7 -13884.952 28162.655
-1683110.1 -13071.098 35775.738
-1678742.2 7251.5026 9864.3857
-1684512.8 9747.6353 26385.814
-1664411.9 22335.539 33640.361
-1673343.7 19194.368 8497.039
-1648217.9 23061.632 27577.985
-1938872.5 42162.683 44168.734
-1623287.5 -31264.718 11516.227
-1658821.2 -37769.487 38146.018
-1247940.7 -55422.487 60753.538
-1638008.9 -13588.695 11676.889
-1634551 -19273.372 30753.41
-1645612.9 -20219.34 38835.301
-1644289.5 3169.9643 10625.104
-1650103.2 5499.8479 28318.144
-1630209.4 17216.761 36245.422
-1643179.8 18804.739 9067.322
-1617399 22850.339 29098.985
-1916900.4 42441.422 47367.033
-1583653.3 -33939.804 12483.955
-1619110.4 -41014.522 41572.47
-1209809.3 -60837.464 65520.788
-1598044.7 -16299.499 12611.132
-1594546.8 -22690.893 33236.463
-1605960.1 -25255.985 41803.876
-1605955.3 1222.3668 11360.278
-1611815.7 3433.8373 30173.287
-1592167 14480.586 38771.897
-1607110.6 19361.382 9634.7693
-1581089.8 23606.531 30577.047
-1885251.4 43792.801 50483.643
-1541888.5 -36351.485 13423.764
-1576966.1 -43978.42 44910.071
-1173092.3 -65870.788 70202.296
-1555740.3 -18202.187 13534.039
-1552287.3 -25258.457 35717.558
-1563848.3 -29342.787 44770.156
-1564426.1 278.31722 12104.021
-1570303.7 2410.1162 32104.593
-1550926.2 12894.694 41354.292
-1566764.5 20341.099 10210.895
-1540836.7 24800.175 32236.077
-1846043.5 45673.308 53754.947
-1497630.3 -38520.599 14351.325
-1532022.2 -46688.675 48194.263
-1137197 -70619.169 74840.361
-1511066.9 -19783.134 14449.125
-1507701.7 -27477.301 38178.777
-1519275.1 -32974.556 47723.529
-1519784 -261.33655 12849.982
-1525585.2 1815.7352 34075.758
-1506771 11766.11 43973.808
-1522920.7 21628.212 10806.042
-1497302.4 26310.906 33937.874
-1800421.5 47825.462 57049.989
-1450837.9 -40758.293 15264.958
-1484282.9 -49467.584 51385.268
-1101849.8 -75402.764 79412.704
-1463739.3 -21034.479 15350.932
-1460523.6 -29355.125 40568.969
-1471951.3 -36302.67 50627.938
-1472340.9 -517.3092 13602.007
-1478029.7 1522.9743 35985.383
-1459917.4 10986.682 46534.796
-1475852.6 22821.211 11404.986
-1450781.9 27735.54 35660.359
-1748755.3 50017.432 60377.253
-1401350.7 -42835.856 16184.477
-1433614.8 -52073.755 54606.33
-1066723.6 -80018.405 84035.594
-1413662.5 -22233.229 16262.289
-1410668.5 -31160.799 43003.52
-1421776.1 -39504.624 53587.082
-1422319.4 -689.69653 14357.823
-1427924 1328.2215 37923.716
-1410403.3 10334.095 49139.821
-1425557.4 24226.942 12007.598
-1401293.6 29382.431 37377.409
-1691144.9 52426.359 63725.655
-1349210.5 -45144.571 17122.126
-1380046.3 -54924.771 57889.375
-1031847 -84897.365 88752.357
-1360961 -23648.064 17189.212
-1358245.5 -33194.693 45488.003
-1368864.6 -42911.053 56610.162
-1369220 -728.97581 15127.02
-1374712.6 1271.7648 39935.643
-1357909.7 9806.6527 51835.257
-1372336 25804.078 12628.03
-1349148.3 31207.735 39165.879
-1627813 54995.889 67174.266
-1294395.7 -47426.576 18083.725
-1323560.7 -57761.126 61236.405
-997180.43 -89785.351 93581.003
-1305368.8 -24945.749 18139.265
-1302984.4 -35121.002 48021.758
-1312959.4 -46228.317 59704.326
-1313161.6 -937.94696 15921.684
-1318494.4 1058.0534 41992.36
-1302567.6 9148.0521 54593.54
-1316076.5 27203.464 13269.957
-1294227.9 32869.475 41018.988
-1558640.2 57473.515 70733.02
-1236715.7 -49790.582 19077.819
-1263969.3 -60693.552 64709.231
-962559.48 -94846.657 98601.309
-1246910.7 -26318.748 19130.989
-1244932.8 -37139.366 50660.26
-1254071.8 -49651.798 62924.342
-1254104.8 -1060.9603 16756.451
-1259264.5 931.76731 44145.358
-1244276.8 8632.7472 57469.623
-1256499 28795.114 13943.441
-1236249.8 34732.819 42983.062
-1483405.6 60218.153 74464.454
-1175937 -52255.243 20138.714
-1201061.2 -63752.258 68364.227
-927819.15 -100101.5 103884.41
-1185398.2 -27583.927 20172.566
-1183916.2 -39075.724 53428.923
-1192021.5 -53042.016 66315.866
-1191858.7 -1059.2573 17636.669
-1196842.3 944.96487 46414.979
-1182829.4 8244.1868 60505.621
-1193573.7 30477.991 14664.886
-1175198.3 36708.136 45075.985
-1402090.6 63142.601 78409.206
-1111713.2 -54920.157 21296.78
-1134551 -67038.75 72306.67
-892741.95 -105720.15 109573.52
-1120601.8 -28933.312 21306.115
-1119752.3 -41126.56 56399.603
-1126567.4 -56588.905 69955.957
-1126323.2 -1050.4984 18598.732
-1131165.4 976.16322 48873.538
-1118081.7 7942.8938 63782.582
-1127048.2 32323.088 15453.374
-1110860.4 38864.294 47370.972
-1314438.1 66364.216 82684.495
-1043487.9 -57932.961 22639.597
-1063985.8 -70714.461 76770.723
-857058.23 -111894 115949.42
-1052052.2 -30240.364 22611.028
-1052117.8 -43202.233 59768.566
-1057295.5 -60234.968 74052.282
-1057256.1 -892.18154 19710.977
-1062128.2 1148.9295 51647.202
-1049782.1 7839.2671 67446.724
-1056481.3 34402.619 16372.744
-1042886.6 41271.361 49989.732
-1220026.8 70003.194 87464.944
-970294.25 -61692.66 24289.36
-988323.54 -75081.807 82273.174
-820364.76 -119032.08 123689.51
-978676.27 -31545.196 24243.742
-980135.4 -45231.41 64039.259
-983636.64 -64020.281 79167.323
-983858.44 66.397439 21127.031
-989191.5 2106.2519 55198.517
-977563.25 8336.182 72009.952
-981453.94 37471.828 17556.987
-971032.97 44640.405 53297.241
-1118334.9 74636.91 93230.365
-890569.7 -67682.409 26212.398
-905406.83 -81598.064 89066.368
-779058.84 -126078.89 133907.16
-899096.87 -33811.733 26139.465
-901465.42 -48307.645 70366.469
-905872.53 -65005.713 87475.99
-901844.05 3795.1899 22813.913
-907048.86 5375.2331 60968.08
-899768.21 13207.455 79909.134
-903083.56 44912.565 19128.983
-896357.26 52029.045 57620.598
-1009984 83823.519 101076.71
-803925.93 -68985.66 29036.559
-818493.68 -82944.612 93983.133
-738702.78 -132162.06 136565.82
-812841.37 -34924.51 28877.25
-818743.04 -49606.948 75138.911
-826983.37 -74622.549 89915.98
-814309.67 494.27053 25313.192
-821545.91 1973.2905 65271.606
-824007.69 546.47671 82332.897
-817800.19 42666.35 21274.961
-817660.79 49832.277 61363.229
-889209.73 76774.839 103908.62
-687598.53 -57539.175 49365.006
-758631.2 -78464.982 105915.57
-685819.12 -114375.44 125755.46
-726009.8 -25306.275 35863.634
-744137.69 -46832.614 84411.505
-767141.54 -57889.947 89879.325
-727768.38 -6905.6519 31645.479
-745037.55 -1381.1621 74706.767
-768636.44 -6727.3718 82977.854
-708040.8 32471.15 35903.428
-755281.05 44067.552 71565.649
-754052.99 64902.094 96269.743
848332.82 796708.49 33961.783
1136980.7 899365.83 21255.346
1484646.9 1125624.2 13142.415
2100683.1 1789087.8 2088.3757
754229.3 914233.66 60390.497
830609.55 1173740.4 20367.801
1059958.3 1567147.1 13515.472
1784061.4 2191548.1 8584.808
849201.18 781371.14 22432.397
1118601 874070.96 15333.348
1490370.7 1119493.1 3773.3132
2129766.2 1809527.9 -12280.562
724810.07 904915.64 56414.232
785430.31 1189839.3 19002.981
1041835.3 1578397.6 7208.3682
1777735.7 2196285.5 -3330.2092
843888.05 768231.08 10071.979
1124193.3 866005.2 6427.1745
1497032.9 1115232.4 1896.5857
2136263.6 1810054.1 -1798.5027
746970.47 913309.62 17936.745
803415.95 1187593.1 10354.988
1050292.4 1578821.6 4059.9674
1784982.5 2200298.4 -158.91946
-117340.18 1211621.3 -21320.228
-97798.305 1241813 -130950.53
-42270.517 1068591 -137005.11
-404814.74 1443554.6 -15670.988
-378325.37 1446979.5 -41784.081