# vtk DataFile Version 2.0
Mesh3D
ASCII

DATASET UNSTRUCTURED_GRID
POINTS 92302 float
7.875  -3.26193  0.75
7.675  -3.17909  0.75
7.675  -2.97399  0.75
7.875  -3.05148  0.75
7.875  -3.26193  0.5625
7.675  -3.17909  0.5625
7.675  -2.97399  0.5625
7.875  -3.05148  0.5625
7.775  -3.22051  0.75
7.675  -3.07654  0.75
7.775  -3.01274  0.75
7.875  -3.15671  0.75
7.875  -3.26193  0.65625
7.675  -3.17909  0.65625
7.675  -2.97399  0.65625
7.875  -3.05148  0.65625
7.775  -3.22051  0.5625
7.675  -3.07654  0.5625
7.775  -3.01274  0.5625
7.875  -3.15671  0.5625
7.775  -3.11662  0.65625
7.775  -3.11662  0.75
7.775  -3.11662  0.5625
7.875  -3.15671  0.65625
7.675  -3.07654  0.65625
7.775  -3.22051  0.65625
7.775  -3.01274  0.65625
7.475  -3.09625  0.75
7.475  -2.89649  0.75
7.475  -3.09625  0.5625
7.475  -2.89649  0.5625
7.575  -3.13767  0.75
7.475  -2.99637  0.75
7.575  -2.93524  0.75
7.475  -3.09625  0.65625
7.475  -2.89649  0.65625
7.575  -3.13767  0.5625
7.475  -2.99637  0.5625
7.575  -2.93524  0.5625
7.575  -3.03645  0.65625
7.575  -3.03645  0.75
7.575  -3.03645  0.5625
7.475  -2.99637  0.65625
7.575  -3.13767  0.65625
7.575  -2.93524  0.65625
7.275  -3.0134  0.75
7.275  -2.81899  0.75
7.275  -3.0134  0.5625
7.275  -2.81899  0.5625
7.375  -3.05483  0.75
7.275  -2.9162  0.75
7.375  -2.85774  0.75
7.275  -3.0134  0.65625
7.275  -2.81899  0.65625
7.375  -3.05483  0.5625
7.275  -2.9162  0.5625
7.375  -2.85774  0.5625
7.375  -2.95628  0.65625
7.375  -2.95628  0.75
7.375  -2.95628  0.5625
7.275  -2.9162  0.65625
7.375  -3.05483  0.65625
7.375  -2.85774  0.65625
7.075  -2.93056  0.75
7.075  -2.74149  0.75
7.075  -2.93056  0.5625
7.075  -2.74149  0.5625
7.175  -2.97198  0.75
7.075  -2.83603  0.75
7.175  -2.78024  0.75
7.075  -2.93056  0.65625
7.075  -2.74149  0.65625
7.175  -2.97198  0.5625
7.075  -2.83603  0.5625
7.175  -2.78024  0.5625
7.175  -2.87611  0.65625
7.175  -2.87611  0.75
7.175  -2.87611  0.5625
7.075  -2.83603  0.65625
7.175  -2.97198  0.65625
7.175  -2.78024  0.65625
6.875  -2.84772  0.75
6.875  -2.66399  0.75
6.875  -2.84772  0.5625
6.875  -2.66399  0.5625
6.975  -2.88914  0.75
6.875  -2.75586  0.75
6.975  -2.70274  0.75
6.875  -2.84772  0.65625
6.875  -2.66399  0.65625
6.975  -2.88914  0.5625
6.875  -2.75586  0.5625
6.975  -2.70274  0.5625
6.975  -2.79594  0.65625
6.975  -2.79594  0.75
6.975  -2.79594  0.5625
6.875  -2.75586  0.65625
6.975  -2.88914  0.65625
6.975  -2.70274  0.65625
7.675  -2.76888  0.75
7.875  -2.84104  0.75
7.675  -2.76888  0.5625
7.875  -2.84104  0.5625
7.675  -2.87144  0.75
7.775  -2.80496  0.75
7.875  -2.94626  0.75
7.675  -2.76888  0.65625
7.875  -2.84104  0.65625
7.675  -2.87144  0.5625
7.775  -2.80496  0.5625
7.875  -2.94626  0.5625
7.775  -2.90885  0.65625
7.775  -2.90885  0.75
7.775  -2.90885  0.5625
7.875  -2.94626  0.65625
7.675  -2.87144  0.65625
7.775  -2.80496  0.65625
7.475  -2.69673  0.75
7.475  -2.69673  0.5625
7.475  -2.79661  0.75
7.575  -2.73281  0.75
7.475  -2.69673  0.65625
7.475  -2.79661  0.5625
7.575  -2.73281  0.5625
7.575  -2.83402  0.65625
7.575  -2.83402  0.75
7.575  -2.83402  0.5625
7.475  -2.79661  0.65625
7.575  -2.73281  0.65625
7.275  -2.62458  0.75
7.275  -2.62458  0.5625
7.275  -2.72178  0.75
7.375  -2.66065  0.75
7.275  -2.62458  0.65625
7.275  -2.72178  0.5625
7.375  -2.66065  0.5625
7.375  -2.7592  0.65625
7.375  -2.7592  0.75
7.375  -2.7592  0.5625
7.275  -2.72178  0.65625
7.375  -2.66065  0.65625
7.075  -2.55242  0.75
7.075  -2.55242  0.5625
7.075  -2.64696  0.75
7.175  -2.5885  0.75
7.075  -2.55242  0.65625
7.075  -2.64696  0.5625
7.175  -2.5885  0.5625
7.175  -2.68437  0.65625
7.175  -2.68437  0.75
7.175  -2.68437  0.5625
7.075  -2.64696  0.65625
7.175  -2.5885  0.65625
6.875  -2.48027  0.75
6.875  -2.48027  0.5625
6.875  -2.57213  0.75
6.975  -2.51635  0.75
6.875  -2.48027  0.65625
6.875  -2.57213  0.5625
6.975  -2.51635  0.5625
6.975  -2.60955  0.65625
6.975  -2.60955  0.75
6.975  -2.60955  0.5625
6.875  -2.57213  0.65625
6.975  -2.51635  0.65625
7.675  -2.56378  0.75
7.875  -2.63059  0.75
7.675  -2.56378  0.5625
7.875  -2.63059  0.5625
7.675  -2.66633  0.75
7.775  -2.59719  0.75
7.875  -2.73581  0.75
7.675  -2.56378  0.65625
7.875  -2.63059  0.65625
7.675  -2.66633  0.5625
7.775  -2.59719  0.5625
7.875  -2.73581  0.5625
7.775  -2.70107  0.65625
7.775  -2.70107  0.75
7.775  -2.70107  0.5625
7.875  -2.73581  0.65625
7.675  -2.66633  0.65625
7.775  -2.59719  0.65625
7.475  -2.49697  0.75
7.475  -2.49697  0.5625
7.475  -2.59685  0.75
7.575  -2.53038  0.75
7.475  -2.49697  0.65625
7.475  -2.59685  0.5625
7.575  -2.53038  0.5625
7.575  -2.63159  0.65625
7.575  -2.63159  0.75
7.575  -2.63159  0.5625
7.475  -2.59685  0.65625
7.575  -2.53038  0.65625
7.275  -2.43016  0.75
7.275  -2.43016  0.5625
7.275  -2.52737  0.75
7.375  -2.46357  0.75
7.275  -2.43016  0.65625
7.275  -2.52737  0.5625
7.375  -2.46357  0.5625
7.375  -2.56211  0.65625
7.375  -2.56211  0.75
7.375  -2.56211  0.5625
7.275  -2.52737  0.65625
7.375  -2.46357  0.65625
7.075  -2.36336  0.75
7.075  -2.36336  0.5625
7.075  -2.45789  0.75
7.175  -2.39676  0.75
7.075  -2.36336  0.65625
7.075  -2.45789  0.5625
7.175  -2.39676  0.5625
7.175  -2.49263  0.65625
7.175  -2.49263  0.75
7.175  -2.49263  0.5625
7.075  -2.45789  0.65625
7.175  -2.39676  0.65625
6.875  -2.29655  0.75
6.875  -2.29655  0.5625
6.875  -2.38841  0.75
6.975  -2.32995  0.75
6.875  -2.29655  0.65625
6.875  -2.38841  0.5625
6.975  -2.32995  0.5625
6.975  -2.42315  0.65625
6.975  -2.42315  0.75
6.975  -2.42315  0.5625
6.875  -2.38841  0.65625
6.975  -2.32995  0.65625
7.675  -2.35868  0.75
7.875  -2.42014  0.75
7.675  -2.35868  0.5625
7.875  -2.42014  0.5625
7.675  -2.46123  0.75
7.775  -2.38941  0.75
7.875  -2.52537  0.75
7.675  -2.35868  0.65625
7.875  -2.42014  0.65625
7.675  -2.46123  0.5625
7.775  -2.38941  0.5625
7.875  -2.52537  0.5625
7.775  -2.4933  0.65625
7.775  -2.4933  0.75
7.775  -2.4933  0.5625
7.875  -2.52537  0.65625
7.675  -2.46123  0.65625
7.775  -2.38941  0.65625
7.475  -2.29722  0.75
7.475  -2.29722  0.5625
7.475  -2.39709  0.75
7.575  -2.32795  0.75
7.475  -2.29722  0.65625
7.475  -2.39709  0.5625
7.575  -2.32795  0.5625
7.575  -2.42916  0.65625
7.575  -2.42916  0.75
7.575  -2.42916  0.5625
7.475  -2.39709  0.65625
7.575  -2.32795  0.65625
7.275  -2.23575  0.75
7.275  -2.23575  0.5625
7.275  -2.33296  0.75
7.375  -2.26648  0.75
7.275  -2.23575  0.65625
7.275  -2.33296  0.5625
7.375  -2.26648  0.5625
7.375  -2.36503  0.65625
7.375  -2.36503  0.75
7.375  -2.36503  0.5625
7.275  -2.33296  0.65625
7.375  -2.26648  0.65625
7.075  -2.17429  0.75
7.075  -2.17429  0.5625
7.075  -2.26882  0.75
7.175  -2.20502  0.75
7.075  -2.17429  0.65625
7.075  -2.26882  0.5625
7.175  -2.20502  0.5625
7.175  -2.30089  0.65625
7.175  -2.30089  0.75
7.175  -2.30089  0.5625
7.075  -2.26882  0.65625
7.175  -2.20502  0.65625
6.875  -2.11282  0.75
6.875  -2.11282  0.5625
6.875  -2.20469  0.75
6.975  -2.14356  0.75
6.875  -2.11282  0.65625
6.875  -2.20469  0.5625
6.975  -2.14356  0.5625
6.975  -2.23675  0.65625
6.975  -2.23675  0.75
6.975  -2.23675  0.5625
6.875  -2.20469  0.65625
6.975  -2.14356  0.65625
7.675  -2.15358  0.75
7.875  -2.2097  0.75
7.675  -2.15358  0.5625
7.875  -2.2097  0.5625
7.675  -2.25613  0.75
7.775  -2.18164  0.75
7.875  -2.31492  0.75
7.675  -2.15358  0.65625
7.875  -2.2097  0.65625
7.675  -2.25613  0.5625
7.775  -2.18164  0.5625
7.875  -2.31492  0.5625
7.775  -2.28552  0.65625
7.775  -2.28552  0.75
7.775  -2.28552  0.5625
7.875  -2.31492  0.65625
7.675  -2.25613  0.65625
7.775  -2.18164  0.65625
7.475  -2.09746  0.75
7.475  -2.09746  0.5625
7.475  -2.19734  0.75
7.575  -2.12552  0.75
7.475  -2.09746  0.65625
7.475  -2.19734  0.5625
7.575  -2.12552  0.5625
7.575  -2.22673  0.65625
7.575  -2.22673  0.75
7.575  -2.22673  0.5625
7.475  -2.19734  0.65625
7.575  -2.12552  0.65625
7.275  -2.04134  0.75
7.275  -2.04134  0.5625
7.275  -2.13854  0.75
7.375  -2.0694  0.75
7.275  -2.04134  0.65625
7.275  -2.13854  0.5625
7.375  -2.0694  0.5625
7.375  -2.16794  0.65625
7.375  -2.16794  0.75
7.375  -2.16794  0.5625
7.275  -2.13854  0.65625
7.375  -2.0694  0.65625
7.075  -1.98522  0.75
7.075  -1.98522  0.5625
7.075  -2.07975  0.75
7.175  -2.01328  0.75
7.075  -1.98522  0.65625
7.075  -2.07975  0.5625
7.175  -2.01328  0.5625
7.175  -2.10915  0.65625
7.175  -2.10915  0.75
7.175  -2.10915  0.5625
7.075  -2.07975  0.65625
7.175  -2.01328  0.65625
6.875  -1.9291  0.75
6.875  -1.9291  0.5625
6.875  -2.02096  0.75
6.975  -1.95716  0.75
6.875  -1.9291  0.65625
6.875  -2.02096  0.5625
6.975  -1.95716  0.5625
6.975  -2.05036  0.65625
6.975  -2.05036  0.75
6.975  -2.05036  0.5625
6.875  -2.02096  0.65625
6.975  -1.95716  0.65625
7.675  -1.94847  0.75
7.875  -1.99925  0.75
7.675  -1.94847  0.5625
7.875  -1.99925  0.5625
7.675  -2.05103  0.75
7.775  -1.97386  0.75
7.875  -2.10447  0.75
7.675  -1.94847  0.65625
7.875  -1.99925  0.65625
7.675  -2.05103  0.5625
7.775  -1.97386  0.5625
7.875  -2.10447  0.5625
7.775  -2.07775  0.65625
7.775  -2.07775  0.75
7.775  -2.07775  0.5625
7.875  -2.10447  0.65625
7.675  -2.05103  0.65625
7.775  -1.97386  0.65625
7.475  -1.8977  0.75
7.475  -1.8977  0.5625
7.475  -1.99758  0.75
7.575  -1.92309  0.75
7.475  -1.8977  0.65625
7.475  -1.99758  0.5625
7.575  -1.92309  0.5625
7.575  -2.0243  0.65625
7.575  -2.0243  0.75
7.575  -2.0243  0.5625
7.475  -1.99758  0.65625
7.575  -1.92309  0.65625
7.275  -1.84692  0.75
7.275  -1.84692  0.5625
7.275  -1.94413  0.75
7.375  -1.87231  0.75
7.275  -1.84692  0.65625
7.275  -1.94413  0.5625
7.375  -1.87231  0.5625
7.375  -1.97085  0.65625
7.375  -1.97085  0.75
7.375  -1.97085  0.5625
7.275  -1.94413  0.65625
7.375  -1.87231  0.65625
7.075  -1.79615  0.75
7.075  -1.79615  0.5625
7.075  -1.89068  0.75
7.175  -1.82154  0.75
7.075  -1.79615  0.65625
7.075  -1.89068  0.5625
7.175  -1.82154  0.5625
7.175  -1.91741  0.65625
7.175  -1.91741  0.75
7.175  -1.91741  0.5625
7.075  -1.89068  0.65625
7.175  -1.82154  0.65625
6.875  -1.74538  0.75
6.875  -1.74538  0.5625
6.875  -1.83724  0.75
[...]
CELL_DATA 9520
VECTORS current_real float
-6064086.3 -85611034 6919547.6
-28407458 -1.0623948e+08 3847207.5
-45546769 -1.2644295e+08 3354432.5
-59333429 -1.5422717e+08 3245388.1
-36217112 -2.1754996e+08 3672775.5
-2453610.7 -1.0921617e+08 6055909.5
-19362815 -1.2729206e+08 4157424.8
-31111771 -1.4445458e+08 3550589.3
-31400606 -1.6825863e+08 3148214.1
-16056242 -1.8852335e+08 4060507.6
-554414.19 -1.284082e+08 5693201.7
-12464553 -1.4256226e+08 3482124.5
-17975253 -1.5497773e+08 2859236.7
-16065752 -1.6772615e+08 2680340.2
-8248296.1 -1.765411e+08 3526107.8
866449.44 -1.4254304e+08 4623347.8
-6504748.5 -1.5210557e+08 2839383.8
-9570446.7 -1.5957312e+08 2393412
-8538809.8 -1.6618872e+08 2306390.9
-4905292.4 -1.7119276e+08 3027172.1
1741152.5 -1.5150865e+08 3910073.6
-2844147.6 -1.5780276e+08 2415454.5
-4856967.4 -1.6199939e+08 2055413.9
-4682885 -1.6557166e+08 1996976.9
-3194276.7 -1.6879868e+08 2611760.6
2168477.1 -1.5721142e+08 3373930.9
-795185.93 -1.6133159e+08 2087981.1
-2307129.3 -1.6363605e+08 1783773.5
-2640790.3 -1.6563265e+08 1739012.9
-2238969.7 -1.678633e+08 2270263.4
2277885.1 -1.6094151e+08 2935325.5
257224.94 -1.6367209e+08 1817876
-959537.13 -1.64922e+08 1556449.8
-1534541 -1.660653e+08 1520376.1
-1670928.5 -1.6766712e+08 1984588.3
2202649.5 -1.6350697e+08 2558926
743756.98 -1.6533847e+08 1586398.9
-270104.65 -1.6600188e+08 1359572.6
-928465.65 -1.6666703e+08 1330323.7
-1313996.3 -1.6784113e+08 1740666.8
2027633.7 -1.6537294e+08 2224390.6
920892.44 -1.6659786e+08 1380089.4
64265.664 -1.6693374e+08 1185445.9
-596519.87 -1.6732068e+08 1163627
-1079172.8 -1.6818704e+08 1528355.3
1807506.7 -1.6679772e+08 1920392.2
934687.04 -1.6759352e+08 1194060
204981.89 -1.6774211e+08 1028738.6
-413834.91 -1.6796241e+08 1013794.1
-913988.18 -1.6859903e+08 1339447.2
1565786.3 -1.6792127e+08 1637840.9
862032.98 -1.6840334e+08 1021922.1
241385.07 -1.6844153e+08 883971.2
-317649.52 -1.685583e+08 876104.1
-793052.99 -1.6901963e+08 1168385.2
1317298.4 -1.6882352e+08 1371445.2
744103.48 -1.6907026e+08 860319.58
219139.47 -1.6904263e+08 749016.29
-270986.12 -1.6909209e+08 748564.51
-699541.4 -1.694164e+08 1011290.2
1066855.5 -1.6954898e+08 1117439.9
601758.93 -1.6961984e+08 706676.74
165442.12 -1.6955087e+08 621161.04
-252564.14 -1.6955589e+08 628609.67
-623895.35 -1.6977203e+08 864542.4
818346.36 -1.7012355e+08 872295.49
448265.91 -1.7006662e+08 559179.94
94031.624 -1.6997049e+08 498655.63
-250980.21 -1.6994634e+08 514056.69
-559562.81 -1.7007795e+08 725747.52
571177.6 -1.7056202e+08 633456.76
288825.51 -1.7041872e+08 415429.74
13981.427 -1.7030521e+08 379941.48
-258941.94 -1.7026234e+08 403550.12
-503050.96 -1.7033008e+08 592727.86
326521.47 -1.7087268e+08 398212.52
128041.41 -1.7068116e+08 274291.55
-70756.591 -1.7055791e+08 263508.16
-272734.41 -1.7050438e+08 295625.8
-451693.14 -1.7052662e+08 463701.86
82922.298 -1.7105861e+08 164768.03
-33033.12 -1.7085697e+08 134442.27
-156916.58 -1.707307e+08 148367.59
-288982.17 -1.706732e+08 189214.37
-403383.52 -1.706673e+08 337148.43
-161047.29 -1.7112011e+08 -68612.513
-193357.1 -1.7094567e+08 -5403.6838
-241277.35 -1.7082378e+08 33574.806
-304413.09 -1.7077008e+08 83295.214
-356153.44 -1.7075314e+08 211631.38
-404090.38 -1.710523e+08 -304473.33
-348308.98 -1.7094485e+08 -146237.73
-320010.24 -1.708367e+08 -82241.176
-315593.17 -1.7079665e+08 -23418.126
-307717.92 -1.7078668e+08 85645.799
-646580.54 -1.7084398e+08 -545060.08
-492609.69 -1.7084913e+08 -290240.97
-384174.29 -1.7076834e+08 -200393.51
-315682.9 -1.7075639e+08 -131979.84
-255257.8 -1.707729e+08 -42467.955
-884167.74 -1.704728e+08 -793444.53
-612634.09 -1.7064683e+08 -438866.09
-420036.77 -1.7061742e+08 -322256.76
-293841.59 -1.7065547e+08 -244123.94
-193213.38 -1.7072137e+08 -174327.68
-1111225.4 -1.698976e+08 -1052713.6
-686604.89 -1.703153e+08 -594179.44
-399960.69 -1.7038202e+08 -449991.77
-229351.53 -1.7050537e+08 -361736.31
-113432.91 -1.7065091e+08 -312413.04
-1311323.5 -1.690408e+08 -1327227.5
-671131.09 -1.6981432e+08 -758793.51
-276803.06 -1.700558e+08 -584937.81
-85487.496 -1.7032735e+08 -485830.36
-974.30106 -1.7059631e+08 -458935.58
-1457966.7 -1.677621e+08 -1624797.8
-484324.23 -1.6906774e+08 -938161.33
42835.941 -1.6962988e+08 -731517.2
201257.94 -1.7016295e+08 -619765.9
167071.13 -1.7061922e+08 -617038.96
-1490507.8 -1.6579624e+08 -1954920.3
30720.896 -1.6793139e+08 -1135712.6
729817.7 -1.6908739e+08 -893524.45
759223.6 -1.7008841e+08 -768089.75
440167.04 -1.7083349e+08 -791392.4
-1313100.6 -1.6265706e+08 -2335378.4
1152514.3 -1.6613041e+08 -1363033
2108311.8 -1.6838067e+08 -1076616
1824182.4 -1.7024268e+08 -933329.17
903815.54 -1.7145378e+08 -986938.46
-773068.11 -1.5748844e+08 -2797526.3
3354117.8 -1.6312607e+08 -1636057.8
4767557.6 -1.6737761e+08 -1292079.4
3856847.6 -1.7086878e+08 -1122963.2
1731352.6 -1.728841e+08 -1210076.5
285956.49 -1.4891165e+08 -3414272
7321765.3 -1.5787144e+08 -1989172.2
9763097.5 -1.6564449e+08 -1558611.8
7800456.9 -1.7234763e+08 -1346346.6
3295484.2 -1.7592621e+08 -1469172.6
1984921.7 -1.3489811e+08 -4351056.8
13820090 -1.485446e+08 -2535576.2
18814364 -1.6171078e+08 -1931080
15680360 -1.7509677e+08 -1619163.5
6485032.3 -1.822733e+08 -1769514.3
4271375.2 -1.1542734e+08 -4502613.7
21472419 -1.331128e+08 -3067194.2
33145589 -1.5144427e+08 -2487085.7
32278031 -1.7709824e+08 -1970758.8
14478087 -1.9636469e+08 -2138133.9
8769954.5 -90269924 -4623710.3
31756405 -1.1152971e+08 -2554112.3
49039676 -1.3313721e+08 -2086452.5
63204204 -1.6306254e+08 -1871010.3
36935635 -2.3027029e+08 -1943339.2
-8378875.4 -86833050 5634775.4
-29866748 -1.0597539e+08 3356705.9
-46168063 -1.2646952e+08 2521244.4
-60105385 -1.5440447e+08 2163874.8
-36039006 -2.1613402e+08 1938653.9
-4511974.9 -1.1407978e+08 4456523.4
-20311049 -1.2691194e+08 3257975.7
-31193113 -1.4453578e+08 2559558.4
-30892150 -1.6870065e+08 2295779.1
-14829111 -1.8538965e+08 2748831.6
-2025637.2 -1.3299489e+08 3974278.8
-12670166 -1.422516e+08 2821930.8
-17915459 -1.5489518e+08 2259753
-15570037 -1.6779422e+08 2198547.9
-7124094.2 -1.737612e+08 2644661.4
-512263.21 -1.4604297e+08 3336213.2
-6824757.1 -1.518483e+08 2398052.1
-9538795.6 -1.5947945e+08 1971978.5
-8101648.4 -1.6613838e+08 1973643
-3935384.9 -1.6895848e+08 2359792.3
539643.84 -1.5422831e+08 2846207
-3145934.3 -1.575851e+08 2065350.7
-4837760.7 -1.6189502e+08 1719878.1
-4319881.9 -1.6548893e+08 1734919.7
-2362277.9 -1.6702501e+08 2066694.9
1112344 -1.5932331e+08 2461580.6
-1078564.8 -1.6114616e+08 1792907.4
-2301712.8 -1.6353505e+08 1499980.5
-2339456 -1.6554369e+08 1517227.4
-1520412.5 -1.6645163e+08 1805796.1
1347251.5 -1.6256983e+08 2141391.5
-4039.0937 -1.6351067e+08 1562354.7
-962495.06 -1.6482764e+08 1309757
-1281075.5 -1.6597844e+08 1326568
-1046085.6 -1.6653982e+08 1580041.5
1384341.8 -1.6473836e+08 1865495.6
505968.57 -1.651954e+08 1363090.2
-279165.1 -1.6591236e+08 1143132.7
-713131.6 -1.6658242e+08 1159155.4
-767617.15 -1.6693984e+08 1384413.7
1311786 -1.6627342e+08 1620581.6
707927.56 -1.6646842e+08 1185057.9
53138.267 -1.6684649e+08 995631.91
-411871.32 -1.6723697e+08 1012543.5
-600528.18 -1.6746789e+08 1213167.9
1187016.9 -1.6742265e+08 1399003.1
746797.93 -1.6747302e+08 1024918.1
193598.78 -1.6765654e+08 863436.5
-254749.3 -1.6788073e+08 881266.54
-494778.76 -1.6802791e+08 1060318.3
1035499.3 -1.6831891e+08 1193702.3
699337.76 -1.6829058e+08 877040.45
230799.68 -1.683574e+08 741640.59
-179959.93 -1.6847788e+08 761086.49
-426442.38 -1.6856926e+08 921756.53
872969.13 -1.6903572e+08 1000737.2
606844.87 -1.6896392e+08 738508.52
211181.44 -1.689597e+08 628523.16
-151316.44 -1.6901121e+08 650282.14
-380515.92 -1.6906531e+08 794395.81
705328.18 -1.6961466e+08 817252.76
489742.75 -1.6951837e+08 607005.94
161192.26 -1.6946919e+08 521661.14
-148827.19 -1.6947483e+08 546445.13
-349202.28 -1.6950211e+08 675298.74
537500.7 -1.7007938e+08 640589.84
361404.08 -1.6996987e+08 480977.57
93721.098 -1.6988964e+08 419490.72
-161348 -1.6986575e+08 447557.36
-326009.1 -1.6987335e+08 562563.35
368874.56 -1.7044329e+08 468674.37
226989.83 -1.7032597e+08 358173.41
18596.169 -1.7022542e+08 320605.7
-182279.28 -1.7018229e+08 352358.38
-308701.18 -1.7017685e+08 454424.25
202049.51 -1.707134e+08 299390.75
91341.64 -1.7059057e+08 237611.64
-61119.822 -1.7047928e+08 223662.41
-208120.77 -1.7042492e+08 259445.78
-294952.77 -1.7041189e+08 349297.01
35829.396 -1.7089128e+08 131511.81
-44583.581 -1.7076724e+08 118197.14
-142038.06 -1.7065287e+08 127863.52
-235878.31 -1.7059407e+08 167921.72
-283338.41 -1.7057912e+08 246048.92
-130967.54 -1.7097812e+08 -36137.418
-179837.57 -1.7085502e+08 -1132.7734
-220800.96 -1.7074692e+08 32451.56
-262636.88 -1.7069138e+08 76933.576
-272535.74 -1.7067981e+08 143606.88
-295642.56 -1.7096973e+08 -205540.39
-309537.51 -1.7085269e+08 -121216.18
-294430.4 -1.7076117e+08 -63782.757
-285088.61 -1.707186e+08 -14741.095
-260485.85 -1.7071671e+08 40597.439
-458643.61 -1.7085555e+08 -378505.44
-428411.49 -1.7075557e+08 -244101.92
-353161.43 -1.7069396e+08 -162006.72
-296963.76 -1.7067984e+08 -108064.29
-245455.53 -1.706943e+08 -64329.303
-614668.01 -1.7061472e+08 -557314.08
-522669.91 -1.7055067e+08 -370999.42
-383993.79 -1.705446e+08 -263431.01
-287443.56 -1.7058102e+08 -204621.1
-221639.35 -1.7062167e+08 -172475.82
-757100.05 -1.7020806e+08 -744255.61
-570880.98 -1.7021573e+08 -503748.53
-359871.51 -1.7031102e+08 -369948.47
-236762.79 -1.7043178e+08 -306150.05
-182223.41 -1.7051649e+08 -285909.94
-868763.59 -1.6956322e+08 -942529.61
-529390.94 -1.6971084e+08 -644575.04
-232595.71 -1.6998712e+08 -482558.35
-108482.55 -1.7025451e+08 -413443.4
-113470.63 -1.7041071e+08 -406460.58
-921397 -1.6854545e+08 -1158200.1
-316228.51 -1.6895655e+08 -798332.08
90853.641 -1.6956385e+08 -605272.21
160712.29 -1.7009291e+08 -529517.45
6974.7382 -1.7036324e+08 -536488.55
-851879.86 -1.6689807e+08 -1397559.1
224632.2 -1.6780885e+08 -967198.77
779588.19 -1.6902251e+08 -740741.65
698000.24 -1.7002081e+08 -658258.46
227533.01 -1.7048409e+08 -679614.69
-561518.8 -1.6415276e+08 -1672100.6
1371891.9 -1.6599222e+08 -1160039.2
2160119.8 -1.6831605e+08 -892393.07
1738506.6 -1.701783e+08 -800495.85
631193.25 -1.7098213e+08 -838722.02
108380.18 -1.5948744e+08 -1999013.6
3596007.8 -1.629659e+08 -1385987.5
4818340.9 -1.6731647e+08 -1066116.3
3740769.6 -1.7081418e+08 -959770.82
1389754 -1.7225476e+08 -1016226.9
1325097.5 -1.5156784e+08 -2413582.6
7585722.4 -1.5768622e+08 -1660907
9813405.7 -1.6559927e+08 -1266374.4
7649049.5 -1.7231704e+08 -1135293.4
2874506.7 -1.7509803e+08 -1211596.2
3091072.1 -1.3849907e+08 -2944572
13971901 -1.4833155e+08 -2009359.3
18837997 -1.6168526e+08 -1499497.4
15497205 -1.7513906e+08 -1313863.5
5973379.2 -1.8120784e+08 -1409872.3
5929990.7 -1.1916795e+08 -3238782.2
22374001 -1.3288216e+08 -2338198.2
33301441 -1.5161731e+08 -1737146.8
32006763 -1.7745754e+08 -1418579.6
13837056 -1.9504647e+08 -1563570.1
10274692 -91781454 -3815695.5
32748822 -1.1145744e+08 -2298878.7
49685631 -1.3329727e+08 -1628732.5
63968652 -1.632723e+08 -1339219.4
37000727 -2.2960915e+08 -1228290.2
-9145153.9 -86524678 2598098.1
-30823742 -1.0598772e+08 2057172.2
-46682828 -1.2659311e+08 1525723.4
-60380363 -1.5462504e+08 1260196.2
-36105652 -2.1680943e+08 1205483.6
-5050687.1 -1.1322019e+08 2485926.2
-20959615 -1.2679222e+08 1964709.7
-31531158 -1.4445305e+08 1545579.3
-30911305 -1.687211e+08 1386363.9
-14678320 -1.8584842e+08 1433826.6
-2513339.3 -1.3225733e+08 2208020.5
-13195772 -1.4200987e+08 1784858.2
-18091087 -1.547022e+08 1453106.9
-15417039 -1.676553e+08 1379451.3
-6879501.5 -1.7386173e+08 1453859.2
-928918.29 -1.4537717e+08 1921478.7
-7240618.9 -1.5161484e+08 1561020.2
-9637877.1 -1.5927743e+08 1304191.1
-7920971.6 -1.6593329e+08 1273215.1
-3694091.7 -1.6892894e+08 1346653.8
177272.98 -1.5369714e+08 1652628
-3494656.1 -1.5738795e+08 1354845.4
-4908633.6 -1.6170792e+08 1149129.6
-4152040.7 -1.6528504e+08 1134311.5
-2142574.2 -1.6695523e+08 1202603.7
795205.45 -1.5889635e+08 1428046
-1380230.6 -1.6097725e+08 1177866.5
-2361577.9 -1.6336926e+08 1005812.9
-2192649.1 -1.6536044e+08 997397.43
-1325220.7 -1.6637247e+08 1060392.6
1068508.3 -1.6221944e+08 1239624.9
-268890.5 -1.6336324e+08 1025963.1
-1016291.3 -1.6468233e+08 878657.23
-1154234 -1.6581823e+08 873450.93
-873964.08 -1.6645996e+08 931615.17
1139687.9 -1.6444634e+08 1077493.3
272908.5 -1.6506362e+08 893740.24
-328166.76 -1.6578411e+08 766721.22
-603217.64 -1.6644273e+08 763800.27
-615811.63 -1.6686128e+08 817467.41
1097954.6 -1.6602706e+08 934443.41
503901.18 -1.6634814e+08 776582.82
9735.6728 -1.6673224e+08 667409.35
-315910.4 -1.6711409e+08 666712.08
-466912.24 -1.6739028e+08 716209.03
1001975.7 -1.6721248e+08 805450.53
570211.38 -1.673612e+08 670835.04
156285.69 -1.6755287e+08 578122.33
-170317.05 -1.6777072e+08 579692.37
-377317.52 -1.679503e+08 625299.55
877781.09 -1.6813719e+08 686821.03
549148.36 -1.6818458e+08 573688.24
200093.07 -1.6826166e+08 496432.47
-105072.3 -1.6837784e+08 500448.36
-323456.02 -1.6849119e+08 542578.25
741323.39 -1.6887655e+08 575884.1
482246.39 -1.6886221e+08 482962.25
187657.65 -1.6887013e+08 420539.36
-84426.141 -1.6891909e+08 427233.53
-290704.64 -1.6898643e+08 466103.82
598818.63 -1.6947294e+08 470623.57
390053.62 -1.6941986e+08 397035.58
145206.11 -1.693842e+08 349031.16
-88775.873 -1.6938865e+08 358575.63
-271589.24 -1.6942204e+08 394507.83
455467.43 -1.6995053e+08 369595.56
286165.91 -1.6987353e+08 314644.53
85519.308 -1.6980795e+08 280738.33
-107251.23 -1.6978392e+08 293326.31
-259796.5 -1.6979198e+08 326544.77
310784.34 -1.7032318e+08 271400.12
175897.71 -1.7023096e+08 234673.12
18475.256 -1.7014589e+08 214684.79
-133429.45 -1.7010357e+08 230507.46
-253273.29 -1.7009429e+08 261262.66
167685.73 -1.7059818e+08 174946.5
64289.536 -1.7049639e+08 156215.86
-52994.347 -1.7040103e+08 150089.55
-164080.79 -1.7034822e+08 169251.55
-249946.5 -1.703283e+08 197642.78
25071.237 -1.7077737e+08 79356.226
-47638.506 -1.7067345e+08 78537.494
-125524.21 -1.7057522e+08 86279.514
-196338.97 -1.7051841e+08 108906.22
-248513.65 -1.7049451e+08 135060.46
-118145.24 -1.7086181e+08 -16213.98
-158870.95 -1.7076118e+08 926.61349
-195772.17 -1.7066907e+08 22609.838
-227401.62 -1.7061578e+08 48850.45
-247765.59 -1.7059437e+08 72921.719
-258956.6 -1.7084713e+08 -112771.09
-264321.83 -1.707581e+08 -77422.768
-260863.82 -1.7068214e+08 -41605.556
-254191.08 -1.7064202e+08 -11665.403
-245874.79 -1.7063059e+08 10322.498
-397691.93 -1.707225e+08 -211536.63
-358550.78 -1.7065938e+08 -157479.91
-310931.89 -1.706127e+08 -107170.34
-270531.79 -1.7060106e+08 -73420.968
-241246.3 -1.7060748e+08 -53464.028
-528783.05 -1.704667e+08 -313704.42
-427518.45 -1.7045209e+08 -240265.64
-333006.84 -1.7045989e+08 -175008.02
-265763.92 -1.7049858e+08 -137277.27
-228193.63 -1.7053392e+08 -119363.77
-645316.44 -1.7003997e+08 -420922.44
-449632.48 -1.7011365e+08 -327066.36
-300134.11 -1.7022161e+08 -246156.16
-220329.14 -1.7034436e+08 -204266.96
-200136.65 -1.7042768e+08 -188292.42
-729921.18 -1.6936838e+08 -535390.09
-380948.9 -1.6960316e+08 -419594.5
-163876.69 -1.6989102e+08 -321933.04
-97961.019 -1.7016024e+08 -275560.34
-143599.06 -1.7032069e+08 -261562.39
-753810.33 -1.6831581e+08 -660166.68
-138900.27 -1.6884088e+08 -520128.63
169031.95 -1.6945844e+08 -404183.1
164571.14 -1.6998908e+08 -352726.93
-36430.357 -1.7027141e+08 -340524.13
-652710.28 -1.6662272e+08 -799491.38
433666.39 -1.676818e+08 -631668.73
867581.67 -1.689055e+08 -494871.13
694349 -1.6990511e+08 -437460.82
169878.75 -1.7039025e+08 -426800.71
-327142.74 -1.6381605e+08 -959527.63
1617323.2 -1.6584858e+08 -758253.17
2260286.8 -1.6818416e+08 -596332.45
1726837 -1.7004885e+08 -531147.96
557805.54 -1.7088738e+08 -521570.44
383541.18 -1.5906596e+08 -1148464.7
3886328.9 -1.6279959e+08 -904837.45
4935241.9 -1.6716711e+08 -710411.14
3722050.7 -1.7067086e+08 -633956.99
1300176.2 -1.7216287e+08 -624752.41
1647812.7 -1.5103949e+08 -1370940.2
7935945.4 -1.5749115e+08 -1074884.5
9958366.6 -1.6543409e+08 -835990.23
7628837.5 -1.7216719e+08 -741593.87
2770367.6 -1.7502192e+08 -731768.76
3473715.1 -1.3794588e+08 -1592606.3
14414051 -1.4814135e+08 -1254817.8
19040428 -1.6152422e+08 -960786.81
15493936 -1.7502032e+08 -836366.14
5860338.9 -1.8118205e+08 -825991.01
6334010.8 -1.1861522e+08 -1771200.8
22892515 -1.3282527e+08 -1383048.8
33614871 -1.5155901e+08 -1040512.1
32093988 -1.7743682e+08 -875982.12
13758926 -1.9519785e+08 -860374.04
10816224 -91468036 -1849013.9
33468098 -1.1143429e+08 -1449885.8
50102281 -1.3337794e+08 -1040117.8
64145774 -1.6338545e+08 -833883.02
37005647 -2.2987368e+08 -782410.43
-9389171.4 -86516296 817735.32
-31163834 -1.0600461e+08 663983.56
-46946363 -1.266441e+08 511973.17
-60533080 -1.5473535e+08 419875.44
-36144206 -2.170084e+08 391544.02
-5254816.3 -1.1312483e+08 786386.18
-21223988 -1.2671331e+08 648721.33
-31706541 -1.4443388e+08 520204.88
-30964602 -1.6876588e+08 459583.81
-14646388 -1.859096e+08 463902.14
-2685096.2 -1.3210877e+08 716129.81
-13393272 -1.418885e+08 596158.39
-18194321 -1.5463005e+08 496401.72
-15404718 -1.6762199e+08 461264.65
-6814092 -1.7382597e+08 472563.24
-1077549.3 -1.4522463e+08 629155.02
-7394275.3 -1.5148339e+08 529300.9
-9698166 -1.5918198e+08 451928.53
-7881361 -1.6585523e+08 431379.87
-3619493 -1.6884413e+08 444217.22
48533.469 -1.5355907e+08 545386.85
-3619688.2 -1.5726848e+08 462332.89
-4949578.9 -1.6161181e+08 400777.81
-4107500.5 -1.6519544e+08 387561.79
-2070260.8 -1.6685957e+08 400310.23
682738.62 -1.5877927e+08 471995.82
-1486655.5 -1.6087374e+08 402503.26
-2394363 -1.6328135e+08 351641.13
-2151201 -1.6527494e+08 342117.14
-1259050 -1.662818e+08 354526.51
969687.23 -1.6211928e+08 409589.74
-361781.16 -1.6327358e+08 350562.39
-1044938.6 -1.6460439e+08 307387.81
-1117668.2 -1.6574134e+08 300073.37
-814680.9 -1.6637849e+08 312036.88
1052861.4 -1.6435869e+08 355771.41
191275.93 -1.6498497e+08 305210.38
-353727.41 -1.6571518e+08 268213.44
-571333.29 -1.6637452e+08 262537.39
-563172.97 -1.6678889e+08 273945.17
1022078.7 -1.659486e+08 308335.93
432478.59 -1.6627795e+08 265051.16
-12824.735 -1.666707e+08 233415.74
-287986.57 -1.6705325e+08 229128.89
-420371.47 -1.6732557e+08 239962.07
936313.14 -1.6714073e+08 265627.41
508450.93 -1.6729742e+08 228848.72
136960.24 -1.674971e+08 202109.23
-145636.32 -1.6771571e+08 199149.13
-336364.83 -1.6789173e+08 209387.96
821817.37 -1.6807033e+08 226455.61
496730.73 -1.6812566e+08 195663.26
184235.37 -1.6821026e+08 173503.19
-82942.264 -1.6832737e+08 171830.21
-287523.36 -1.6843746e+08 181501.71
694638.45 -1.6881332e+08 189897.86
438949.88 -1.6880693e+08 164708.83
175512.55 -1.6882205e+08 146948.52
-64377.378 -1.6887209e+08 146577.85
-259429.54 -1.6893641e+08 155701.14
561146.61 -1.6941241e+08 155273.57
355733.37 -1.6936725e+08 135439.31
136910.88 -1.6933859e+08 121944.73
-70363.228 -1.6934427e+08 122899.1
-244578.62 -1.6937485e+08 131546.11
426572.86 -1.698919e+08 122057.68
260699.54 -1.6982288e+08 107397.96
81210.778 -1.6976412e+08 98078.625
-90217.966 -1.6974144e+08 100393.82
-236841.38 -1.6974692e+08 108596.22
290482.46 -1.702658e+08 89816.54
159192.76 -1.7018158e+08 80201.012
18269.783 -1.7010329e+08 75007.358
-117503.6 -1.7006239e+08 78711.059
-234137.78 -1.7005073e+08 86506.98
155897.13 -1.7054154e+08 58165.249
56312.326 -1.7044774e+08 53549.768
-49018.51 -1.7035917e+08 52458.687
-149109.41 -1.7030783e+08 57583.883
-234517.72 -1.7028571e+08 65003.462
21758.493 -1.7072099e+08 26807.062
-46885.776 -1.7062509e+08 27170.434
-117298.3 -1.7053366e+08 30186.917
-182213.19 -1.7047842e+08 36766.045
-236715.02 -1.7045241e+08 43839.164
-112977.44 -1.708052e+08 -4542.1966
-149347.97 -1.7071259e+08 797.76883
-183232.6 -1.7062737e+08 7956.551
-214050.48 -1.7057572e+08 16021.986
-239553.52 -1.7055228e+08 22777.513
-245199.64 -1.7078972e+08 -36238.569
-245924.45 -1.7070869e+08 -25831.35
-243972.25 -1.7063982e+08 -14470.82
-241649.33 -1.706014e+08 -4875.0601
-241324.17 -1.7058799e+08 1580.9613
-375186.71 -1.7066361e+08 -68652.976
-331132.88 -1.7060856e+08 -53048.227
-289644.68 -1.7056922e+08 -37376.525