# vtk DataFile Version 2.0
Mesh3D
ASCII

DATASET UNSTRUCTURED_GRID
POINTS 92302 float
7.875  -3.26193  0.75
7.675  -3.17909  0.75
7.675  -2.97399  0.75
7.875  -3.05148  0.75
7.875  -3.26193  0.5625
7.675  -3.17909  0.5625
7.675  -2.97399  0.5625
7.875  -3.05148  0.5625
7.775  -3.22051  0.75
7.675  -3.07654  0.75
7.775  -3.01274  0.75
7.875  -3.15671  0.75
7.875  -3.26193  0.65625
7.675  -3.17909  0.65625
7.675  -2.97399  0.65625
7.875  -3.05148  0.65625
7.775  -3.22051  0.5625
7.675  -3.07654  0.5625
7.775  -3.01274  0.5625
7.875  -3.15671  0.5625
7.775  -3.11662  0.65625
7.775  -3.11662  0.75
7.775  -3.11662  0.5625
7.875  -3.15671  0.65625
7.675  -3.07654  0.65625
7.775  -3.22051  0.65625
7.775  -3.01274  0.65625
7.475  -3.09625  0.75
7.475  -2.89649  0.75
7.475  -3.09625  0.5625
7.475  -2.89649  0.5625
7.575  -3.13767  0.75
7.475  -2.99637  0.75
7.575  -2.93524  0.75
7.475  -3.09625  0.65625
7.475  -2.89649  0.65625
7.575  -3.13767  0.5625
7.475  -2.99637  0.5625
7.575  -2.93524  0.5625
7.575  -3.03645  0.65625
7.575  -3.03645  0.75
7.575  -3.03645  0.5625
7.475  -2.99637  0.65625
7.575  -3.13767  0.65625
7.575  -2.93524  0.65625
7.275  -3.0134  0.75
7.275  -2.81899  0.75
7.275  -3.0134  0.5625
7.275  -2.81899  0.5625
7.375  -3.05483  0.75
7.275  -2.9162  0.75
7.375  -2.85774  0.75
7.275  -3.0134  0.65625
7.275  -2.81899  0.65625
7.375  -3.05483  0.5625
7.275  -2.9162  0.5625
7.375  -2.85774  0.5625
7.375  -2.95628  0.65625
7.375  -2.95628  0.75
7.375  -2.95628  0.5625
7.275  -2.9162  0.65625
7.375  -3.05483  0.65625
7.375  -2.85774  0.65625
7.075  -2.93056  0.75
7.075  -2.74149  0.75
7.075  -2.93056  0.5625
7.075  -2.74149  0.5625
7.175  -2.97198  0.75
7.075  -2.83603  0.75
7.175  -2.78024  0.75
7.075  -2.93056  0.65625
7.075  -2.74149  0.65625
7.175  -2.97198  0.5625
7.075  -2.83603  0.5625
7.175  -2.78024  0.5625
7.175  -2.87611  0.65625
7.175  -2.87611  0.75
7.175  -2.87611  0.5625
7.075  -2.83603  0.65625
7.175  -2.97198  0.65625
7.175  -2.78024  0.65625
6.875  -2.84772  0.75
6.875  -2.66399  0.75
6.875  -2.84772  0.5625
6.875  -2.66399  0.5625
6.975  -2.88914  0.75
6.875  -2.75586  0.75
6.975  -2.70274  0.75
6.875  -2.84772  0.65625
6.875  -2.66399  0.65625
6.975  -2.88914  0.5625
6.875  -2.75586  0.5625
6.975  -2.70274  0.5625
6.975  -2.79594  0.65625
6.975  -2.79594  0.75
6.975  -2.79594  0.5625
6.875  -2.75586  0.65625
6.975  -2.88914  0.65625
6.975  -2.70274  0.65625
7.675  -2.76888  0.75
7.875  -2.84104  0.75
7.675  -2.76888  0.5625
7.875  -2.84104  0.5625
7.675  -2.87144  0.75
7.775  -2.80496  0.75
7.875  -2.94626  0.75
7.675  -2.76888  0.65625
7.875  -2.84104  0.65625
7.675  -2.87144  0.5625
7.775  -2.80496  0.5625
7.875  -2.94626  0.5625
7.775  -2.90885  0.65625
7.775  -2.90885  0.75
7.775  -2.90885  0.5625
7.875  -2.94626  0.65625
7.675  -2.87144  0.65625
7.775  -2.80496  0.65625
7.475  -2.69673  0.75
7.475  -2.69673  0.5625
7.475  -2.79661  0.75
7.575  -2.73281  0.75
7.475  -2.69673  0.65625
7.475  -2.79661  0.5625
7.575  -2.73281  0.5625
7.575  -2.83402  0.65625
7.575  -2.83402  0.75
7.575  -2.83402  0.5625
7.475  -2.79661  0.65625
7.575  -2.73281  0.65625
7.275  -2.62458  0.75
7.275  -2.62458  0.5625
7.275  -2.72178  0.75
7.375  -2.66065  0.75
7.275  -2.62458  0.65625
7.275  -2.72178  0.5625
7.375  -2.66065  0.5625
7.375  -2.7592  0.65625
7.375  -2.7592  0.75
7.375  -2.7592  0.5625
7.275  -2.72178  0.65625
7.375  -2.66065  0.65625
7.075  -2.55242  0.75
7.075  -2.55242  0.5625
7.075  -2.64696  0.75
7.175  -2.5885  0.75
7.075  -2.55242  0.65625
7.075  -2.64696  0.5625
7.175  -2.5885  0.5625
7.175  -2.68437  0.65625
7.175  -2.68437  0.75
7.175  -2.68437  0.5625
7.075  -2.64696  0.65625
7.175  -2.5885  0.65625
6.875  -2.48027  0.75
6.875  -2.48027  0.5625
6.875  -2.57213  0.75
6.975  -2.51635  0.75
6.875  -2.48027  0.65625
6.875  -2.57213  0.5625
6.975  -2.51635  0.5625
6.975  -2.60955  0.65625
6.975  -2.60955  0.75
6.975  -2.60955  0.5625
6.875  -2.57213  0.65625
6.975  -2.51635  0.65625
7.675  -2.56378  0.75
7.875  -2.63059  0.75
7.675  -2.56378  0.5625
7.875  -2.63059  0.5625
7.675  -2.66633  0.75
7.775  -2.59719  0.75
7.875  -2.73581  0.75
7.675  -2.56378  0.65625
7.875  -2.63059  0.65625
7.675  -2.66633  0.5625
7.775  -2.59719  0.5625
7.875  -2.73581  0.5625
7.775  -2.70107  0.65625
7.775  -2.70107  0.75
7.775  -2.70107  0.5625
7.875  -2.73581  0.65625
7.675  -2.66633  0.65625
7.775  -2.59719  0.65625
7.475  -2.49697  0.75
7.475  -2.49697  0.5625
7.475  -2.59685  0.75
7.575  -2.53038  0.75
7.475  -2.49697  0.65625
7.475  -2.59685  0.5625
7.575  -2.53038  0.5625
7.575  -2.63159  0.65625
7.575  -2.63159  0.75
7.575  -2.63159  0.5625
7.475  -2.59685  0.65625
7.575  -2.53038  0.65625
7.275  -2.43016  0.75
7.275  -2.43016  0.5625
7.275  -2.52737  0.75
7.375  -2.46357  0.75
7.275  -2.43016  0.65625
7.275  -2.52737  0.5625
7.375  -2.46357  0.5625
7.375  -2.56211  0.65625
7.375  -2.56211  0.75
7.375  -2.56211  0.5625
7.275  -2.52737  0.65625
7.375  -2.46357  0.65625
7.075  -2.36336  0.75
7.075  -2.36336  0.5625
7.075  -2.45789  0.75
7.175  -2.39676  0.75
7.075  -2.36336  0.65625
7.075  -2.45789  0.5625
7.175  -2.39676  0.5625
7.175  -2.49263  0.65625
7.175  -2.49263  0.75
7.175  -2.49263  0.5625
7.075  -2.45789  0.65625
7.175  -2.39676  0.65625
6.875  -2.29655  0.75
6.875  -2.29655  0.5625
6.875  -2.38841  0.75
6.975  -2.32995  0.75
6.875  -2.29655  0.65625
6.875  -2.38841  0.5625
6.975  -2.32995  0.5625
6.975  -2.42315  0.65625
6.975  -2.42315  0.75
6.975  -2.42315  0.5625
6.875  -2.38841  0.65625
6.975  -2.32995  0.65625
7.675  -2.35868  0.75
7.875  -2.42014  0.75
7.675  -2.35868  0.5625
7.875  -2.42014  0.5625
7.675  -2.46123  0.75
7.775  -2.38941  0.75
7.875  -2.52537  0.75
7.675  -2.35868  0.65625
7.875  -2.42014  0.65625
7.675  -2.46123  0.5625
7.775  -2.38941  0.5625
7.875  -2.52537  0.5625
7.775  -2.4933  0.65625
7.775  -2.4933  0.75
7.775  -2.4933  0.5625
7.875  -2.52537  0.65625
7.675  -2.46123  0.65625
7.775  -2.38941  0.65625
7.475  -2.29722  0.75
7.475  -2.29722  0.5625
7.475  -2.39709  0.75
7.575  -2.32795  0.75
7.475  -2.29722  0.65625
7.475  -2.39709  0.5625
7.575  -2.32795  0.5625
7.575  -2.42916  0.65625
7.575  -2.42916  0.75
7.575  -2.42916  0.5625
7.475  -2.39709  0.65625
7.575  -2.32795  0.65625
7.275  -2.23575  0.75
7.275  -2.23575  0.5625
7.275  -2.33296  0.75
7.375  -2.26648  0.75
7.275  -2.23575  0.65625
7.275  -2.33296  0.5625
7.375  -2.26648  0.5625
7.375  -2.36503  0.65625
7.375  -2.36503  0.75
7.375  -2.36503  0.5625
7.275  -2.33296  0.65625
7.375  -2.26648  0.65625
7.075  -2.17429  0.75
7.075  -2.17429  0.5625
7.075  -2.26882  0.75
7.175  -2.20502  0.75
7.075  -2.17429  0.65625
7.075  -2.26882  0.5625
7.175  -2.20502  0.5625
7.175  -2.30089  0.65625
7.175  -2.30089  0.75
7.175  -2.30089  0.5625
7.075  -2.26882  0.65625
7.175  -2.20502  0.65625
6.875  -2.11282  0.75
6.875  -2.11282  0.5625
6.875  -2.20469  0.75
6.975  -2.14356  0.75
6.875  -2.11282  0.65625
6.875  -2.20469  0.5625
6.975  -2.14356  0.5625
6.975  -2.23675  0.65625
6.975  -2.23675  0.75
6.975  -2.23675  0.5625
6.875  -2.20469  0.65625
6.975  -2.14356  0.65625
7.675  -2.15358  0.75
7.875  -2.2097  0.75
7.675  -2.15358  0.5625
7.875  -2.2097  0.5625
7.675  -2.25613  0.75
7.775  -2.18164  0.75
7.875  -2.31492  0.75
7.675  -2.15358  0.65625
7.875  -2.2097  0.65625
7.675  -2.25613  0.5625
7.775  -2.18164  0.5625
7.875  -2.31492  0.5625
7.775  -2.28552  0.65625
7.775  -2.28552  0.75
7.775  -2.28552  0.5625
7.875  -2.31492  0.65625
7.675  -2.25613  0.65625
7.775  -2.18164  0.65625
7.475  -2.09746  0.75
7.475  -2.09746  0.5625
7.475  -2.19734  0.75
7.575  -2.12552  0.75
7.475  -2.09746  0.65625
7.475  -2.19734  0.5625
7.575  -2.12552  0.5625
7.575  -2.22673  0.65625
7.575  -2.22673  0.75
7.575  -2.22673  0.5625
7.475  -2.19734  0.65625
7.575  -2.12552  0.65625
7.275  -2.04134  0.75
7.275  -2.04134  0.5625
7.275  -2.13854  0.75
7.375  -2.0694  0.75
7.275  -2.04134  0.65625
7.275  -2.13854  0.5625
7.375  -2.0694  0.5625
7.375  -2.16794  0.65625
7.375  -2.16794  0.75
7.375  -2.16794  0.5625
7.275  -2.13854  0.65625
7.375  -2.0694  0.65625
7.075  -1.98522  0.75
7.075  -1.98522  0.5625
7.075  -2.07975  0.75
7.175  -2.01328  0.75
7.075  -1.98522  0.65625
7.075  -2.07975  0.5625
7.175  -2.01328  0.5625
7.175  -2.10915  0.65625
7.175  -2.10915  0.75
7.175  -2.10915  0.5625
7.075  -2.07975  0.65625
7.175  -2.01328  0.65625
6.875  -1.9291  0.75
6.875  -1.9291  0.5625
6.875  -2.02096  0.75
6.975  -1.95716  0.75
6.875  -1.9291  0.65625
6.875  -2.02096  0.5625
6.975  -1.95716  0.5625
6.975  -2.05036  0.65625
6.975  -2.05036  0.75
6.975  -2.05036  0.5625
6.875  -2.02096  0.65625
6.975  -1.95716  0.65625
7.675  -1.94847  0.75
7.875  -1.99925  0.75
7.675  -1.94847  0.5625
7.875  -1.99925  0.5625
7.675  -2.05103  0.75
7.775  -1.97386  0.75
7.875  -2.10447  0.75
7.675  -1.94847  0.65625
7.875  -1.99925  0.65625
7.675  -2.05103  0.5625
7.775  -1.97386  0.5625
7.875  -2.10447  0.5625
7.775  -2.07775  0.65625
7.775  -2.07775  0.75
7.775  -2.07775  0.5625
7.875  -2.10447  0.65625
7.675  -2.05103  0.65625
7.775  -1.97386  0.65625
7.475  -1.8977  0.75
7.475  -1.8977  0.5625
7.475  -1.99758  0.75
7.575  -1.92309  0.75
7.475  -1.8977  0.65625
7.475  -1.99758  0.5625
7.575  -1.92309  0.5625
7.575  -2.0243  0.65625
7.575  -2.0243  0.75
7.575  -2.0243  0.5625
7.475  -1.99758  0.65625
7.575  -1.92309  0.65625
7.275  -1.84692  0.75
7.275  -1.84692  0.5625
7.275  -1.94413  0.75
7.375  -1.87231  0.75
7.275  -1.84692  0.65625
7.275  -1.94413  0.5625
7.375  -1.87231  0.5625
7.375  -1.97085  0.65625
7.375  -1.97085  0.75
7.375  -1.97085  0.5625
7.275  -1.94413  0.65625
7.375  -1.87231  0.65625
7.075  -1.79615  0.75
7.075  -1.79615  0.5625
7.075  -1.89068  0.75
7.175  -1.82154  0.75
7.075  -1.79615  0.65625
7.075  -1.89068  0.5625
7.175  -1.82154  0.5625
7.175  -1.91741  0.65625
7.175  -1.91741  0.75
7.175  -1.91741  0.5625
7.075  -1.89068  0.65625
7.175  -1.82154  0.65625
6.875  -1.74538  0.75
6.875  -1.74538  0.5625
6.875  -1.83724  0.75
[...]
CELL_DATA 9520
VECTORS current_real float
-4532225.2 -79097468 7310226.1
-25206677 -98257819 4032885.6
-41248892 -1.1678734e+08 3492552.6
-54127586 -1.4228872e+08 3363313.6
-33262530 -2.0053138e+08 3767107.4
-1368784.5 -1.0062338e+08 6336598.2
-17080680 -1.1787262e+08 4314068.1
-28140747 -1.3358169e+08 3669903.6
-28667757 -1.5543515e+08 3244140
-14847390 -1.7432266e+08 4116525.9
241825.17 -1.1851288e+08 5937396.2
-10921559 -1.3212523e+08 3618501.2
-16170237 -1.4350135e+08 2961692.4
-14626965 -1.5522982e+08 2757588
-7652905.8 -1.6355661e+08 3569396.2
1437561 -1.3183378e+08 4839275.8
-5517911.3 -1.4108418e+08 2959069.4
-8505025.7 -1.4792926e+08 2481632.8
-7732583.2 -1.5403303e+08 2371450.1
-4562914.9 -1.5880732e+08 3063297.3
2150997.2 -1.403378e+08 4100849.3
-2218732.2 -1.4648804e+08 2520531.5
-4215574 -1.503346e+08 2132051
-4203498.6 -1.5363814e+08 2052929.4
-2979344.6 -1.5674131e+08 2643091
2471211.7 -1.4580614e+08 3541720.2
-387902.19 -1.4988005e+08 2180096.9
-1905263.3 -1.5198928e+08 1850553
-2338816.6 -1.5383932e+08 1787539.7
-2094327.4 -1.55997e+08 2297801.9
2510210 -1.4943201e+08 3081998.1
535054.91 -1.5216278e+08 1898259.5
-694824.02 -1.5330193e+08 1614505.1
-1333387.4 -1.5436215e+08 1562474.7
-1567946.5 -1.5591819e+08 2008812.3
2386631.9 -1.5196201e+08 2685995.3
942975.04 -1.5381051e+08 1655933.9
-86367.877 -1.5440866e+08 1409743
-787362.46 -1.550243e+08 1366705.7
-1237382.8 -1.5616796e+08 1761799.5
2176200 -1.5382633e+08 2333120
1069847.3 -1.5507003e+08 1439587.4
197604.28 -1.5536489e+08 1228296.4
-493174.17 -1.5572029e+08 1194649.9
-1020280.9 -1.565652e+08 1546488.4
1927803.9 -1.5526438e+08 2011739.6
1048886.5 -1.5607401e+08 1244000.2
304810.05 -1.561945e+08 1064649
-336080.99 -1.5639283e+08 1039760.3
-868022.66 -1.5701336e+08 1354655.7
1662104.6 -1.5640636e+08 1712629
950106.73 -1.5689487e+08 1062766.1
316999.64 -1.5691183e+08 913308.88
-258471.42 -1.5701169e+08 897284.35
-757068.97 -1.5746007e+08 1180714.2
1392086.2 -1.5732696e+08 1430295
810898.09 -1.5757267e+08 892412.27
275870.57 -1.5752737e+08 772007.13
-226381.42 -1.5756259e+08 765100.07
-671800.06 -1.5787588e+08 1020755.3
1121658.8 -1.5806802e+08 1160803.2
650089.46 -1.5813143e+08 730269.15
206249.07 -1.5804664e+08 637998.19
-220266.07 -1.5803877e+08 640617.24
-603332.31 -1.5824511e+08 871173.29
854014.67 -1.5865409e+08 900497.54
479631.46 -1.5858489e+08 574434.7
120606.14 -1.5847391e+08 509464.26
-229692.54 -1.5843751e+08 521634.47
-545586.24 -1.5856009e+08 729565.78
588256.07 -1.5909927e+08 646706.36
304067.49 -1.5894079e+08 422492.55
27159.309 -1.5881293e+08 384811.61
-247981.35 -1.5875805e+08 406753.16
-495303.7 -1.5881722e+08 593745
325184.23 -1.5941157e+08 396639.18
127450.73 -1.5920398e+08 273220.41
-70589.538 -1.5906652e+08 262489.45
-271784.97 -1.5900105e+08 294492.97
-450027.13 -1.5901494e+08 461938.39
63164.673 -1.5959398e+08 148370.07
-49463.315 -1.5937738e+08 125236.93
-169768.95 -1.5923677e+08 141460.67
-298053.89 -1.5916729e+08 183747.48
-407808.83 -1.5915306e+08 332609.21
-199408.85 -1.5964686e+08 -99968.008
-225931.72 -1.5946061e+08 -22801.731
-267552.4 -1.5932393e+08 20731.299
-323842.09 -1.5925801e+08 73459.036
-366838.3 -1.5923251e+08 204305.6
-461611.05 -1.5956569e+08 -350998.82
-397884.32 -1.5945145e+08 -171974.9
-360562.15 -1.5932755e+08 -101110.15
-346083.69 -1.5927469e+08 -37675.148
-325040.04 -1.5925561e+08 75531.622
-724120.94 -1.5933989e+08 -607084.92
-560701.46 -1.5934491e+08 -324480.83
-440715.08 -1.5924654e+08 -225412.21
-358553.54 -1.5922044e+08 -150752.6
-279830.18 -1.5922683e+08 -55382.548
-983286.81 -1.5894852e+08 -871425.19
-702077.33 -1.591301e+08 -481860.99
-495549.54 -1.5907958e+08 -353617.68
-351384.12 -1.591008e+08 -267526
-226122.76 -1.5915487e+08 -190063.09
-1234387.4 -1.5835307e+08 -1147277
-802271.95 -1.5878594e+08 -646276.18
-499805.61 -1.5882466e+08 -487920.52
-305598 -1.5892614e+08 -389906.14
-156442.44 -1.5905689e+08 -330975.74
-1462840.1 -1.5748123e+08 -1439203.1
-821687.68 -1.5827507e+08 -820456.25
-410318 -1.5847562e+08 -629802.25
-187491.65 -1.5871573e+08 -519036.28
-57056.651 -1.5896471e+08 -480361.53
-1645015 -1.5620248e+08 -1755152.1
-685332.93 -1.5752686e+08 -1009872.9
-141297.84 -1.5802379e+08 -783698.19
61278.233 -1.585074e+08 -658308.62
93087.456 -1.5893484e+08 -641394.48
-1726060.7 -1.5427051e+08 -2104927.9
-249177.12 -1.5640775e+08 -1218289.4
464389.59 -1.5745293e+08 -953589.1
558896.74 -1.5837084e+08 -812325.65
339591.14 -1.5907185e+08 -818760.69
-1619298 -1.512342e+08 -2506567.4
742737.6 -1.5466327e+08 -1457365.9
1705249.3 -1.5671803e+08 -1145407.3
1522611.3 -1.584333e+08 -983969.58
761292.84 -1.5957318e+08 -1017534.2
-1186725 -1.4629901e+08 -2991787
2725538.1 -1.5179472e+08 -1743386
4124203.5 -1.5569552e+08 -1370736.2
3377219.3 -1.5891748e+08 -1181006.5
1518154.4 -1.6081065e+08 -1244368.4
-289485.09 -1.3818343e+08 -3633802.2
6330700.8 -1.4683284e+08 -2111159.9
8694457.5 -1.5398203e+08 -1648869.6
6992936.7 -1.6017225e+08 -1413475.8
2954279.1 -1.6352256e+08 -1508152.9
1183616.7 -1.2498441e+08 -4599030.2
12271264 -1.3809058e+08 -2674335.5
17004038 -1.5021493e+08 -2035606
14238423 -1.6257856e+08 -1698463.7
5889898.5 -1.6926779e+08 -1815535.9
3180461.6 -1.068182e+08 -4787414.9
19182281 -1.2367774e+08 -3226368
30166039 -1.4055215e+08 -2608533.8
29538456 -1.6425077e+08 -2068722.2
13267599 -1.8213857e+08 -2196731.5
7229867.8 -83745351 -5019975.3
28544581 -1.0353476e+08 -2742634.3
44729653 -1.2346416e+08 -2226835.1
57985062 -1.5110113e+08 -1990994.4
33974491 -2.1321773e+08 -2039908.1
-6974589 -80416084 5945702.7
-26729478 -97964237 3529021
-41882326 -1.1680699e+08 2639412
-54890253 -1.4245775e+08 2261885.1
-33060144 -1.9913113e+08 2029462.4
-3518949.8 -1.0574578e+08 4668637.6
-18062057 -1.1747279e+08 3397521
-28232699 -1.3366111e+08 2659727.8
-28160881 -1.5586751e+08 2376073
-13611149 -1.7122871e+08 2812063.7
-1310863.9 -1.233277e+08 4149659.5
-11155010 -1.3180357e+08 2939808.6
-16121901 -1.434177e+08 2344359
-14137879 -1.552948e+08 2262831.8
-6524250.5 -1.6081188e+08 2693945.9
-14394.231 -1.3552228e+08 3488357.7
-5863641.1 -1.4081878e+08 2499905.8
-8485293.7 -1.4783583e+08 2043919.1
-7302810 -1.5398189e+08 2027212.3
-3590194.4 -1.5660104e+08 2400580.3
883951.19 -1.4320927e+08 2979595.8
-2544155.2 -1.4626369e+08 2154076.5
-4207735 -1.5023064e+08 1781884.2
-3847592.3 -1.5355522e+08 1780643.1
-2145367.8 -1.5498905e+08 2101542.9
1356904.9 -1.4803761e+08 2578537.7
-692652.43 -1.4968857e+08 1870403.6
-1910231.4 -1.518883e+08 1553782.5
-2043905 -1.5375018e+08 1556699.3
-1374225.7 -1.5460122e+08 1835985.1
1528443.7 -1.5115221e+08 2243537.8
254732.02 -1.5199565e+08 1629877
-707168.23 -1.532069e+08 1356429.3
-1085645.2 -1.5427474e+08 1360724.9
-941826.08 -1.5480234e+08 1606284
1523828.8 -1.5326176e+08 1953979.7
688450.11 -1.5366188e+08 1421464.3
-103665.08 -1.543178e+08 1183437.2
-577030.55 -1.549387e+08 1188649.8
-689967.66 -1.5527459e+08 1407109.2
1422170.1 -1.5477542e+08 1696309.1
842392.66 -1.5493512e+08 1235012.4
179307.13 -1.5527576e+08 1030051.7
-312832.66 -1.5563519e+08 1037675.5
-540784.94 -1.5585118e+08 1232534.4
1275156.9 -1.5592146e+08 1462623
848724.21 -1.5594821e+08 1066846.3
287335.86 -1.5610653e+08 892270.76
-180630.15 -1.5630926e+08 902287.46
-448142.22 -1.5644517e+08 1076523.4
1105424.6 -1.5682263e+08 1245787.5
777299.33 -1.5677685e+08 911333.01
301422.85 -1.5682481e+08 765194.81
-123779.24 -1.5692893e+08 778226.75
-389996.88 -1.5701096e+08 934911.83
926953.02 -1.5754707e+08 1041716.7
665628.46 -1.5746106e+08 765453.61
263945.69 -1.5744113e+08 646974.71
-109128.64 -1.574791e+08 663651.3
-352533.04 -1.5752473e+08 804563.37
744772.61 -1.5813348e+08 847431.41
532137.01 -1.5802468e+08 626809.33
199030.32 -1.579613e+08 535163.25
-118378.6 -1.5795486e+08 556133.61
-328593.43 -1.5797413e+08 682540.67
563135.19 -1.5860401e+08 660186.53
388876.08 -1.5848277e+08 493769.56
118332.86 -1.5838918e+08 428141.33
-141364.38 -1.5835386e+08 453645.12
-312202.66 -1.5835372e+08 566923.45
381214.56 -1.5897126e+08 477834.5
240372.5 -1.5884259e+08 364081.45
30771.829 -1.5872909e+08 324479.15
-172089.78 -1.5867481e+08 354890.27
-301336.22 -1.5866174e+08 455927.51
201209.92 -1.5924192e+08 298215.23
90902.566 -1.5910791e+08 236687.08
-60982.359 -1.5898378e+08 222801.81
-207412.11 -1.5891835e+08 258456.42
-293883.14 -1.5889773e+08 347970.52
21806.426 -1.5941756e+08 119999.77
-58850.655 -1.5928218e+08 110439.88
-153946.59 -1.5915489e+08 122269.59
-244659.05 -1.5908498e+08 163412.9
-288572.04 -1.5906241e+08 241895.96
-158296.47 -1.5949937e+08 -58088.713
-208212.93 -1.5936457e+08 -15774.241
-245169.27 -1.5924317e+08 22082.615
-281237.59 -1.5917627e+08 68874.284
-284234.72 -1.5915697e+08 136606.94
-336801.11 -1.594835e+08 -238078.29
-352867.72 -1.59354e+08 -142869.69
-332065.49 -1.5924837e+08 -78999.72
-314198.24 -1.591938e+08 -26392.252
-279027.44 -1.5918393e+08 30732.048
-514370.41 -1.5936019e+08 -421851.16
-488178.99 -1.5924605e+08 -272898.28
-405781.93 -1.5916886e+08 -182168.51
-337876 -1.591413e+08 -123383.96
-271428.32 -1.5914733e+08 -77097.603
-686375.86 -1.591101e+08 -611775.2
-601682.04 -1.5902865e+08 -407145.29
-454554.64 -1.5900388e+08 -288689.92
-342434.28 -1.5902406e+08 -223696.48
-256150.22 -1.590554e+08 -188202.95
-847075.83 -1.5869694e+08 -810264.51
-673948.92 -1.5868104e+08 -547533.48
-453656.16 -1.5875128e+08 -400481.3
-309804.37 -1.5885071e+08 -329087.84
-227021.06 -1.589242e+08 -304651.91
-981055.31 -1.5805375e+08 -1020663.6
-665123.6 -1.581661e+08 -696391.58
-358961.55 -1.5840508e+08 -518670.51
-206590.98 -1.5864157e+08 -440471.49
-171494.51 -1.5878287e+08 -428323.3
-1062890.6 -1.5705594e+08 -1249113.8
-500156.93 -1.5741008e+08 -858576.24
-85052.352 -1.5795645e+08 -647263.11
25344.795 -1.5843645e+08 -560884.77
-69104.459 -1.5868528e+08 -561633.96
-1035220.4 -1.5546621e+08 -1502165.6
-35852.119 -1.5627946e+08 -1036603.3
523550.86 -1.573874e+08 -789095.74
503030.97 -1.5830279e+08 -694263.32
124654.52 -1.5873227e+08 -708255.36
-808438.03 -1.5285173e+08 -1791559.5
983854.1 -1.5451898e+08 -1239435.9
1767461.8 -1.5665345e+08 -947874.62
1443020.3 -1.5836884e+08 -841789.57
486139.39 -1.591157e+08 -871252.06
-238604.49 -1.484524e+08 -2134963.2
2991446.8 -1.516278e+08 -1476642.2
4186392.5 -1.5563483e+08 -1129803.9
3267932.2 -1.5886278e+08 -1007288.6
1173634.1 -1.6020096e+08 -1053352.5
824071.26 -1.4103109e+08 -2568380
6620780 -1.4663942e+08 -1764736.8
8756746.2 -1.5393711e+08 -1340005.7
6848650.6 -1.6014097e+08 -1190627.6
2529593.7 -1.6272062e+08 -1254589
2372455.8 -1.2881674e+08 -3122771.6
12451342 -1.3786642e+08 -2129300.2
17039225 -1.5018835e+08 -1585818.9
14061685 -1.6261791e+08 -1379877.6
5372957.6 -1.682358e+08 -1461270.1
4932188 -1.1082105e+08 -3454101.4
20117495 -1.2342715e+08 -2479988.4
30332659 -1.4072342e+08 -1839092.8
29268658 -1.6460059e+08 -1500558.3
12616726 -1.808586e+08 -1628783.4
8863967 -85354447 -4131160.2
29601403 -1.0343261e+08 -2473813.2
45387912 -1.2361724e+08 -1748811.2
58740328 -1.5130261e+08 -1438907.7
34014901 -2.125715e+08 -1320763
-7781899 -80074329 2740958.6
-27735285 -97954108 2167738
-42418728 -1.1691567e+08 1604569
-55170172 -1.426661e+08 1323774.3
-33121500 -1.9978964e+08 1262402.9
-4087107.3 -1.0482508e+08 2609205.5
-18745219 -1.1733586e+08 2056635
-28587930 -1.3356428e+08 1612431
-28187005 -1.5587481e+08 1439520.9
-13455838 -1.7167151e+08 1481333.8
-1823674.7 -1.2255109e+08 2309031.1
-11709511 -1.3154975e+08 1862088.7
-16313518 -1.4321299e+08 1509425.9
-13992981 -1.5514557e+08 1423271.3
-6276601.6 -1.6090243e+08 1492027.4
-453664.02 -1.3482666e+08 2007690.8
-6305532.2 -1.4057607e+08 1627174.5
-8599468.6 -1.4762452e+08 1352008.9
-7130174.1 -1.5376943e+08 1309780.7
-3346731.4 -1.5656458e+08 1378294.2
501160.78 -1.4265374e+08 1727528.2
-2916442.1 -1.4605884e+08 1412180.1
-4292490.4 -1.5003612e+08 1190200.9
-3687222.1 -1.5334568e+08 1165405.5
-1924124.5 -1.5491407e+08 1229430.8
1021515.1 -1.4759023e+08 1493412.9
-1015407.9 -1.4951289e+08 1227781.9
-1982609.6 -1.5171626e+08 1041355.1
-1903848.6 -1.5356231e+08 1024147.7
-1177931.7 -1.5451783e+08 1083426.5
1233566.9 -1.5078451e+08 1296549
-28777.965 -1.5184199e+08 1069364.9
-772080.37 -1.5305612e+08 909449.51
-964797.08 -1.5411053e+08 896548.86
-768904.1 -1.5471885e+08 951472.12
1265085.1 -1.5295495e+08 1126721
439096.33 -1.5352421e+08 931243.24
-162379.83 -1.5418461e+08 793273.21
-472362.39 -1.5479536e+08 783676.37
-537591.97 -1.5519277e+08 834526.23
1196228.4 -1.5451631e+08 976517.84
624351.27 -1.5480917e+08 808624.63
127526.21 -1.5515691e+08 690063.92
-221400.24 -1.5550889e+08 683638.95
-406762.38 -1.5577053e+08 730708.47
1079901.4 -1.557002e+08 840780.74
660308.26 -1.5583084e+08 697730.63
242936.92 -1.5599851e+08 597112.58
-100035.1 -1.56196e+08 593852.92
-330399.23 -1.563647e+08 637402.1
939315.58 -1.5663118e+08 715723.54
617386.53 -1.566654e+08 595680.51
264883.05 -1.5672493e+08 511935.65
-52070.215 -1.5682577e+08 511977.14
-286834.02 -1.5693013e+08 552399.38
788685.28 -1.5737922e+08 598605.03
533345.05 -1.5735398e+08 500236
235797.22 -1.5734756e+08 432686.84
-44783.011 -1.5738393e+08 436226.07
-262632.08 -1.5744316e+08 473723.78
633367.46 -1.5798387e+08 487342.63
426755.1 -1.5792083e+08 409725.3
179596.43 -1.5787241e+08 357916.89
-60259.715 -1.5786569e+08 365100.06
-250964.14 -1.5789144e+08 399984.94
477900.13 -1.5846781e+08 380440.2
309901.8 -1.5838113e+08 322846.47
107840.65 -1.5830365e+08 286430.72
-88601.849 -1.5826909e+08 297432.38
-246040.38 -1.5826976e+08 329921.69
321600.26 -1.5884415e+08 276457.36
187476.65 -1.587423e+08 238453.48
29496.823 -1.5864578e+08 217230.63
-123986.55 -1.5859319e+08 232229.18
-246020.84 -1.5857663e+08 262567.92
166984.55 -1.591198e+08 174263.18
63963.297 -1.5900846e+08 155609.9
-52880.731 -1.5890177e+08 149513.55
-163535.27 -1.5883875e+08 168607.37
-249048.97 -1.5881161e+08 196892.48
12849.526 -1.5929663e+08 72931.984
-59875.567 -1.5918311e+08 73545.217
-136325.61 -1.5907347e+08 82582.194
-204698.44 -1.5900642e+08 105897.26
-253978.41 -1.5897527e+08 132256.16
-141994.17 -1.5937569e+08 -28426.753
-183282.12 -1.5926544e+08 -8487.2305
-217894.82 -1.591615e+08 15767.53
-244990.59 -1.5909773e+08 43460.503
-259756.25 -1.5906899e+08 68050.391
-294939.6 -1.5935297e+08 -130860.24
-301728.15 -1.5925407e+08 -91324.497
-295092.24 -1.5916543e+08 -51638.688
-281686.03 -1.5911424e+08 -19468.193
-264771.92 -1.5909525e+08 3358.6866
-446514.28 -1.5921839e+08 -235630.67
-410397.94 -1.591445e+08 -175965.99
-358963.59 -1.590836e+08 -120461.89
-309210.49 -1.5905948e+08 -83684.292
-267644.32 -1.5905791e+08 -62560.069
-591814.29 -1.5895225e+08 -343984.37
-496566.13 -1.5892464e+08 -263471.04
-397763.68 -1.5891502e+08 -191651.21
-317878.62 -1.589385e+08 -150067.31
-263211.79 -1.5896499e+08 -130647.53
-724787.95 -1.5851764e+08 -457636.16
-540622.93 -1.5857342e+08 -355176.59
-386853.81 -1.5865752e+08 -266281.92
-289825.65 -1.5876006e+08 -219677.46
-245541.16 -1.5883265e+08 -201841.49
-829807.52 -1.5784603e+08 -578856.36
-502409.92 -1.5805276e+08 -452853.7
-281875.21 -1.5830438e+08 -345718.43
-191820.7 -1.5854387e+08 -293724.31
-202348.05 -1.5868996e+08 -277489.75
-880912.83 -1.5681134e+08 -710797.6
-306268.04 -1.5728854e+08 -558853.45
2839.699 -1.5784611e+08 -431861.38
34184.107 -1.5832898e+08 -373825.92
-113390.76 -1.5859034e+08 -358989.97
-819608.3 -1.5517337e+08 -857834.67
192119.92 -1.5614618e+08 -676299.48
622674.68 -1.5726492e+08 -526785.91
505124.55 -1.5818307e+08 -461766.41
65897.032 -1.5863499e+08 -448041.71
-555492.52 -1.5249439e+08 -1026336.5
1250669.4 -1.5436858e+08 -809408.83
1880172.6 -1.5651531e+08 -632994.84
1437871.9 -1.5823476e+08 -559089.81
411356.07 -1.5901692e+08 -545963.16
57305.703 -1.4800629e+08 -1224842.1
3305646.3 -1.514538e+08 -963431.31
4317227.2 -1.5547805e+08 -752603.18
3256478.4 -1.5871381e+08 -666225.59
1082234.1 -1.6010406e+08 -652910.66
1169745.9 -1.404726e+08 -1458689.9
6997371.9 -1.4643509e+08 -1142331.6
8916880 -1.5376262e+08 -884934.63
6836304.5 -1.5998376e+08 -779315.42
2423016.4 -1.626378e+08 -764707.62
2780575.1 -1.2822404e+08 -1695271.7
12922768 -1.3766405e+08 -1333406.3
17257768 -1.5001554e+08 -1018249.9
14066386 -1.6248887e+08 -881320.19
5256615 -1.6820026e+08 -865415.59
5366074.4 -1.1020643e+08 -1896377.2
20671073 -1.233529e+08 -1476459
30663467 -1.4065095e+08 -1108552.2
29362805 -1.6456672e+08 -930249.1
12533884 -1.8099428e+08 -909077.58
9447112.6 -85007222 -1994005.9
30370165 -1.0338674e+08 -1562142.9
45826497 -1.2368286e+08 -1120237.9
58922438 -1.5140352e+08 -898572.23
34014432 -2.1281929e+08 -840439.6
-8038106.7 -80057817 863179.98
-28091056 -97961378 700437.84
-42693252 -1.1695862e+08 539492.56
-55326564 -1.4276959e+08 441986.05
-33158654 -1.9998108e+08 411312.12
-4301991.2 -1.0471818e+08 825899.04
-19023189 -1.1724676e+08 679903.07
-28772492 -1.3353776e+08 543553.97
-28243675 -1.5591308e+08 478230.93
-13421816 -1.7172633e+08 480767.41
-2004657.8 -1.2239232e+08 749375.04
-11918399 -1.3142026e+08 622419.01
-16424925 -1.4313466e+08 516102.08
-13984001 -1.5510674e+08 476843.21
-6209296.1 -1.6086164e+08 486470.11
-610548.66 -1.3466682e+08 657369.07
-6469324 -1.404383e+08 551708.12
-8667306 -1.4752414e+08 468651.82
-7093913.2 -1.5368708e+08 444431.98
-3270660.1 -1.5647612e+08 455790
364956.46 -1.4250984e+08 569781.52
-3050648.9 -1.4593423e+08 481690.04
-4340368.6 -1.4993604e+08 415121.29
-3645873.3 -1.5325275e+08 398648.75
-1850693 -1.548156e+08 410109.6
902350.78 -1.4746812e+08 493229.11
-1130072.6 -1.4940498e+08 419320.82
-2021657.1 -1.5162502e+08 364035.45
-1865345 -1.5347409e+08 351637.91
-1110922.1 -1.5442485e+08 362920.24
1128808.5 -1.5067982e+08 428053.02
-128976.42 -1.5174843e+08 365167.13
-806296.9 -1.5297527e+08 318115.18
-930888.21 -1.5403129e+08 308280.42
-708993.72 -1.5463538e+08 319255.87
1173065.2 -1.5286311e+08 371724.35
351070.66 -1.53442e+08 317820.49
-192821.41 -1.5411306e+08 277457.24
-442832.95 -1.5472506e+08 269590.09
-484485.33 -1.5511856e+08 280134.77
1115880.3 -1.544339e+08 321963.38
547422.49 -1.5473566e+08 275819.46
100754.75 -1.5509291e+08 241298.76
-195527.53 -1.5544611e+08 235129.94
-359874.34 -1.5570413e+08 245216.55
1010463 -1.5562468e+08 277066.67
593896.75 -1.5576394e+08 237884.92
220047.96 -1.5594042e+08 208716.2
-77104.774 -1.5613916e+08 204167.47
-289192.46 -1.5630451e+08 213771.01
880248.89 -1.5656068e+08 235811.15
561143.5 -1.5660349e+08 203050.47
246088 -1.5667131e+08 178896.22
-31395.837 -1.5677355e+08 175914.91
-250721.49 -1.5687485e+08 185058.27
739550.45 -1.5731246e+08 197249.94
487023.8 -1.572958e+08 170509.51
221322.13 -1.5729733e+08 151173.6
-25901.529 -1.5733524e+08 149764.37
-231238.04 -1.5739163e+08 158463.21
593883.15 -1.5791989e+08 160681.45
390191.34 -1.578654e+08 139699.45
169563.64 -1.578247e+08 125035.22
-42731.335 -1.5781966e+08 125212.82
-223886.2 -1.5784276e+08 133536.7
447819.61 -1.5840578e+08 125563.7
282959.24 -1.5832771e+08 110150.39
102376.13 -1.5825777e+08 100058.41
-72173.982 -1.5822499e+08 101852.96
-223063.3 -1.5822324e+08 109831.76
300731.21 -1.587834e+08 91448.806
170053.3 -1.5869019e+08 81467.804
28709.481 -1.5860113e+08 75892.444
-108390.19 -1.585504e+08 79327.81
-226904.96 -1.5853162e+08 86998.369
155243.69 -1.5905981e+08 57938.419
56020.487 -1.5895709e+08 53342.253
-48916.42 -1.5885788e+08 52257.39
-148618.84 -1.5879677e+08 57364.615
-233679.54 -1.5876758e+08 64756.496
10199.567 -1.5923687e+08 24721.04
-58335.358 -1.5913202e+08 25488.629
-127540.52 -1.5902987e+08 28899.421
-190352.73 -1.5896482e+08 35711.118
-242278.7 -1.5893172e+08 42854.31
-135544.39 -1.5931567e+08 -8502.2721
-172213.03 -1.5921409e+08 -2369.625
-204220.86 -1.5911773e+08 5574.907
-231142.56 -1.5905605e+08 14125.747
-251684.21 -1.5902544e+08 21049.919
-279273.58 -1.592921e+08 -42101.053
-281015.94 -1.5920185e+08 -30506.425
-276482.9 -1.5912102e+08 -17962.287
-268366.77 -1.5907197e+08 -7624.114
-260405.91 -1.5905118e+08 -899.35869
-421461.36 -1.5915597e+08 -76460.492
-379881.98 -1.5909079e+08 -59263.848
-335363.62 -1.5903797e+08 -42001.411
-296405.4 -1.5901604e+08 -29828.225
-267027 -1.5901277e+08 -23270.425