# vtk DataFile Version 2.0
Mesh3D
ASCII

DATASET UNSTRUCTURED_GRID
POINTS 92302 float
7.875  -3.26193  0.75
7.675  -3.17909  0.75
7.675  -2.97399  0.75
7.875  -3.05148  0.75
7.875  -3.26193  0.5625
7.675  -3.17909  0.5625
7.675  -2.97399  0.5625
7.875  -3.05148  0.5625
7.775  -3.22051  0.75
7.675  -3.07654  0.75
7.775  -3.01274  0.75
7.875  -3.15671  0.75
7.875  -3.26193  0.65625
7.675  -3.17909  0.65625
7.675  -2.97399  0.65625
7.875  -3.05148  0.65625
7.775  -3.22051  0.5625
7.675  -3.07654  0.5625
7.775  -3.01274  0.5625
7.875  -3.15671  0.5625
7.775  -3.11662  0.65625
7.775  -3.11662  0.75
7.775  -3.11662  0.5625
7.875  -3.15671  0.65625
7.675  -3.07654  0.65625
7.775  -3.22051  0.65625
7.775  -3.01274  0.65625
7.475  -3.09625  0.75
7.475  -2.89649  0.75
7.475  -3.09625  0.5625
7.475  -2.89649  0.5625
7.575  -3.13767  0.75
7.475  -2.99637  0.75
7.575  -2.93524  0.75
7.475  -3.09625  0.65625
7.475  -2.89649  0.65625
7.575  -3.13767  0.5625
7.475  -2.99637  0.5625
7.575  -2.93524  0.5625
7.575  -3.03645  0.65625
7.575  -3.03645  0.75
7.575  -3.03645  0.5625
7.475  -2.99637  0.65625
7.575  -3.13767  0.65625
7.575  -2.93524  0.65625
7.275  -3.0134  0.75
7.275  -2.81899  0.75
7.275  -3.0134  0.5625
7.275  -2.81899  0.5625
7.375  -3.05483  0.75
7.275  -2.9162  0.75
7.375  -2.85774  0.75
7.275  -3.0134  0.65625
7.275  -2.81899  0.65625
7.375  -3.05483  0.5625
7.275  -2.9162  0.5625
7.375  -2.85774  0.5625
7.375  -2.95628  0.65625
7.375  -2.95628  0.75
7.375  -2.95628  0.5625
7.275  -2.9162  0.65625
7.375  -3.05483  0.65625
7.375  -2.85774  0.65625
7.075  -2.93056  0.75
7.075  -2.74149  0.75
7.075  -2.93056  0.5625
7.075  -2.74149  0.5625
7.175  -2.97198  0.75
7.075  -2.83603  0.75
7.175  -2.78024  0.75
7.075  -2.93056  0.65625
7.075  -2.74149  0.65625
7.175  -2.97198  0.5625
7.075  -2.83603  0.5625
7.175  -2.78024  0.5625
7.175  -2.87611  0.65625
7.175  -2.87611  0.75
7.175  -2.87611  0.5625
7.075  -2.83603  0.65625
7.175  -2.97198  0.65625
7.175  -2.78024  0.65625
6.875  -2.84772  0.75
6.875  -2.66399  0.75
6.875  -2.84772  0.5625
6.875  -2.66399  0.5625
6.975  -2.88914  0.75
6.875  -2.75586  0.75
6.975  -2.70274  0.75
6.875  -2.84772  0.65625
6.875  -2.66399  0.65625
6.975  -2.88914  0.5625
6.875  -2.75586  0.5625
6.975  -2.70274  0.5625
6.975  -2.79594  0.65625
6.975  -2.79594  0.75
6.975  -2.79594  0.5625
6.875  -2.75586  0.65625
6.975  -2.88914  0.65625
6.975  -2.70274  0.65625
7.675  -2.76888  0.75
7.875  -2.84104  0.75
7.675  -2.76888  0.5625
7.875  -2.84104  0.5625
7.675  -2.87144  0.75
7.775  -2.80496  0.75
7.875  -2.94626  0.75
7.675  -2.76888  0.65625
7.875  -2.84104  0.65625
7.675  -2.87144  0.5625
7.775  -2.80496  0.5625
7.875  -2.94626  0.5625
7.775  -2.90885  0.65625
7.775  -2.90885  0.75
7.775  -2.90885  0.5625
7.875  -2.94626  0.65625
7.675  -2.87144  0.65625
7.775  -2.80496  0.65625
7.475  -2.69673  0.75
7.475  -2.69673  0.5625
7.475  -2.79661  0.75
7.575  -2.73281  0.75
7.475  -2.69673  0.65625
7.475  -2.79661  0.5625
7.575  -2.73281  0.5625
7.575  -2.83402  0.65625
7.575  -2.83402  0.75
7.575  -2.83402  0.5625
7.475  -2.79661  0.65625
7.575  -2.73281  0.65625
7.275  -2.62458  0.75
7.275  -2.62458  0.5625
7.275  -2.72178  0.75
7.375  -2.66065  0.75
7.275  -2.62458  0.65625
7.275  -2.72178  0.5625
7.375  -2.66065  0.5625
7.375  -2.7592  0.65625
7.375  -2.7592  0.75
7.375  -2.7592  0.5625
7.275  -2.72178  0.65625
7.375  -2.66065  0.65625
7.075  -2.55242  0.75
7.075  -2.55242  0.5625
7.075  -2.64696  0.75
7.175  -2.5885  0.75
7.075  -2.55242  0.65625
7.075  -2.64696  0.5625
7.175  -2.5885  0.5625
7.175  -2.68437  0.65625
7.175  -2.68437  0.75
7.175  -2.68437  0.5625
7.075  -2.64696  0.65625
7.175  -2.5885  0.65625
6.875  -2.48027  0.75
6.875  -2.48027  0.5625
6.875  -2.57213  0.75
6.975  -2.51635  0.75
6.875  -2.48027  0.65625
6.875  -2.57213  0.5625
6.975  -2.51635  0.5625
6.975  -2.60955  0.65625
6.975  -2.60955  0.75
6.975  -2.60955  0.5625
6.875  -2.57213  0.65625
6.975  -2.51635  0.65625
7.675  -2.56378  0.75
7.875  -2.63059  0.75
7.675  -2.56378  0.5625
7.875  -2.63059  0.5625
7.675  -2.66633  0.75
7.775  -2.59719  0.75
7.875  -2.73581  0.75
7.675  -2.56378  0.65625
7.875  -2.63059  0.65625
7.675  -2.66633  0.5625
7.775  -2.59719  0.5625
7.875  -2.73581  0.5625
7.775  -2.70107  0.65625
7.775  -2.70107  0.75
7.775  -2.70107  0.5625
7.875  -2.73581  0.65625
7.675  -2.66633  0.65625
7.775  -2.59719  0.65625
7.475  -2.49697  0.75
7.475  -2.49697  0.5625
7.475  -2.59685  0.75
7.575  -2.53038  0.75
7.475  -2.49697  0.65625
7.475  -2.59685  0.5625
7.575  -2.53038  0.5625
7.575  -2.63159  0.65625
7.575  -2.63159  0.75
7.575  -2.63159  0.5625
7.475  -2.59685  0.65625
7.575  -2.53038  0.65625
7.275  -2.43016  0.75
7.275  -2.43016  0.5625
7.275  -2.52737  0.75
7.375  -2.46357  0.75
7.275  -2.43016  0.65625
7.275  -2.52737  0.5625
7.375  -2.46357  0.5625
7.375  -2.56211  0.65625
7.375  -2.56211  0.75
7.375  -2.56211  0.5625
7.275  -2.52737  0.65625
7.375  -2.46357  0.65625
7.075  -2.36336  0.75
7.075  -2.36336  0.5625
7.075  -2.45789  0.75
7.175  -2.39676  0.75
7.075  -2.36336  0.65625
7.075  -2.45789  0.5625
7.175  -2.39676  0.5625
7.175  -2.49263  0.65625
7.175  -2.49263  0.75
7.175  -2.49263  0.5625
7.075  -2.45789  0.65625
7.175  -2.39676  0.65625
6.875  -2.29655  0.75
6.875  -2.29655  0.5625
6.875  -2.38841  0.75
6.975  -2.32995  0.75
6.875  -2.29655  0.65625
6.875  -2.38841  0.5625
6.975  -2.32995  0.5625
6.975  -2.42315  0.65625
6.975  -2.42315  0.75
6.975  -2.42315  0.5625
6.875  -2.38841  0.65625
6.975  -2.32995  0.65625
7.675  -2.35868  0.75
7.875  -2.42014  0.75
7.675  -2.35868  0.5625
7.875  -2.42014  0.5625
7.675  -2.46123  0.75
7.775  -2.38941  0.75
7.875  -2.52537  0.75
7.675  -2.35868  0.65625
7.875  -2.42014  0.65625
7.675  -2.46123  0.5625
7.775  -2.38941  0.5625
7.875  -2.52537  0.5625
7.775  -2.4933  0.65625
7.775  -2.4933  0.75
7.775  -2.4933  0.5625
7.875  -2.52537  0.65625
7.675  -2.46123  0.65625
7.775  -2.38941  0.65625
7.475  -2.29722  0.75
7.475  -2.29722  0.5625
7.475  -2.39709  0.75
7.575  -2.32795  0.75
7.475  -2.29722  0.65625
7.475  -2.39709  0.5625
7.575  -2.32795  0.5625
7.575  -2.42916  0.65625
7.575  -2.42916  0.75
7.575  -2.42916  0.5625
7.475  -2.39709  0.65625
7.575  -2.32795  0.65625
7.275  -2.23575  0.75
7.275  -2.23575  0.5625
7.275  -2.33296  0.75
7.375  -2.26648  0.75
7.275  -2.23575  0.65625
7.275  -2.33296  0.5625
7.375  -2.26648  0.5625
7.375  -2.36503  0.65625
7.375  -2.36503  0.75
7.375  -2.36503  0.5625
7.275  -2.33296  0.65625
7.375  -2.26648  0.65625
7.075  -2.17429  0.75
7.075  -2.17429  0.5625
7.075  -2.26882  0.75
7.175  -2.20502  0.75
7.075  -2.17429  0.65625
7.075  -2.26882  0.5625
7.175  -2.20502  0.5625
7.175  -2.30089  0.65625
7.175  -2.30089  0.75
7.175  -2.30089  0.5625
7.075  -2.26882  0.65625
7.175  -2.20502  0.65625
6.875  -2.11282  0.75
6.875  -2.11282  0.5625
6.875  -2.20469  0.75
6.975  -2.14356  0.75
6.875  -2.11282  0.65625
6.875  -2.20469  0.5625
6.975  -2.14356  0.5625
6.975  -2.23675  0.65625
6.975  -2.23675  0.75
6.975  -2.23675  0.5625
6.875  -2.20469  0.65625
6.975  -2.14356  0.65625
7.675  -2.15358  0.75
7.875  -2.2097  0.75
7.675  -2.15358  0.5625
7.875  -2.2097  0.5625
7.675  -2.25613  0.75
7.775  -2.18164  0.75
7.875  -2.31492  0.75
7.675  -2.15358  0.65625
7.875  -2.2097  0.65625
7.675  -2.25613  0.5625
7.775  -2.18164  0.5625
7.875  -2.31492  0.5625
7.775  -2.28552  0.65625
7.775  -2.28552  0.75
7.775  -2.28552  0.5625
7.875  -2.31492  0.65625
7.675  -2.25613  0.65625
7.775  -2.18164  0.65625
7.475  -2.09746  0.75
7.475  -2.09746  0.5625
7.475  -2.19734  0.75
7.575  -2.12552  0.75
7.475  -2.09746  0.65625
7.475  -2.19734  0.5625
7.575  -2.12552  0.5625
7.575  -2.22673  0.65625
7.575  -2.22673  0.75
7.575  -2.22673  0.5625
7.475  -2.19734  0.65625
7.575  -2.12552  0.65625
7.275  -2.04134  0.75
7.275  -2.04134  0.5625
7.275  -2.13854  0.75
7.375  -2.0694  0.75
7.275  -2.04134  0.65625
7.275  -2.13854  0.5625
7.375  -2.0694  0.5625
7.375  -2.16794  0.65625
7.375  -2.16794  0.75
7.375  -2.16794  0.5625
7.275  -2.13854  0.65625
7.375  -2.0694  0.65625
7.075  -1.98522  0.75
7.075  -1.98522  0.5625
7.075  -2.07975  0.75
7.175  -2.01328  0.75
7.075  -1.98522  0.65625
7.075  -2.07975  0.5625
7.175  -2.01328  0.5625
7.175  -2.10915  0.65625
7.175  -2.10915  0.75
7.175  -2.10915  0.5625
7.075  -2.07975  0.65625
7.175  -2.01328  0.65625
6.875  -1.9291  0.75
6.875  -1.9291  0.5625
6.875  -2.02096  0.75
6.975  -1.95716  0.75
6.875  -1.9291  0.65625
6.875  -2.02096  0.5625
6.975  -1.95716  0.5625
6.975  -2.05036  0.65625
6.975  -2.05036  0.75
6.975  -2.05036  0.5625
6.875  -2.02096  0.65625
6.975  -1.95716  0.65625
7.675  -1.94847  0.75
7.875  -1.99925  0.75
7.675  -1.94847  0.5625
7.875  -1.99925  0.5625
7.675  -2.05103  0.75
7.775  -1.97386  0.75
7.875  -2.10447  0.75
7.675  -1.94847  0.65625
7.875  -1.99925  0.65625
7.675  -2.05103  0.5625
7.775  -1.97386  0.5625
7.875  -2.10447  0.5625
7.775  -2.07775  0.65625
7.775  -2.07775  0.75
7.775  -2.07775  0.5625
7.875  -2.10447  0.65625
7.675  -2.05103  0.65625
7.775  -1.97386  0.65625
7.475  -1.8977  0.75
7.475  -1.8977  0.5625
7.475  -1.99758  0.75
7.575  -1.92309  0.75
7.475  -1.8977  0.65625
7.475  -1.99758  0.5625
7.575  -1.92309  0.5625
7.575  -2.0243  0.65625
7.575  -2.0243  0.75
7.575  -2.0243  0.5625
7.475  -1.99758  0.65625
7.575  -1.92309  0.65625
7.275  -1.84692  0.75
7.275  -1.84692  0.5625
7.275  -1.94413  0.75
7.375  -1.87231  0.75
7.275  -1.84692  0.65625
7.275  -1.94413  0.5625
7.375  -1.87231  0.5625
7.375  -1.97085  0.65625
7.375  -1.97085  0.75
7.375  -1.97085  0.5625
7.275  -1.94413  0.65625
7.375  -1.87231  0.65625
7.075  -1.79615  0.75
7.075  -1.79615  0.5625
7.075  -1.89068  0.75
7.175  -1.82154  0.75
7.075  -1.79615  0.65625
7.075  -1.89068  0.5625
7.175  -1.82154  0.5625
7.175  -1.91741  0.65625
7.175  -1.91741  0.75
7.175  -1.91741  0.5625
7.075  -1.89068  0.65625
7.175  -1.82154  0.65625
6.875  -1.74538  0.75
6.875  -1.74538  0.5625
6.875  -1.83724  0.75
[...]
CELL_DATA 9520
VECTORS current_real float
-16581364 -1.3078642e+08 4308376
-50491203 -1.6160122e+08 2609937
-75234439 -1.9337526e+08 2436932.8
-95312379 -2.369384e+08 2463619
-56649714 -3.3540199e+08 3054901
-9903191.4 -1.6877285e+08 4172571
-35107769 -1.92608e+08 3110669.8
-51632722 -2.198158e+08 2756277.4
-50289234 -2.5710519e+08 2513432.2
-24423710 -2.8691398e+08 3706865.1
-6018948.5 -1.9699202e+08 4050337.4
-23106091 -2.1492535e+08 2568583.8
-30439762 -2.34525e+08 2176231.9
-26010547 -2.5432664e+08 2170472
-12373764 -2.6653602e+08 3255717
-3049327.5 -2.1677359e+08 3167471.6
-13306327 -2.2851998e+08 2035944.4
-16924662 -2.4029047e+08 1804397.2
-14110692 -2.5044695e+08 1876650.8
-7278932.7 -2.5705455e+08 2801011.9
-1065871.7 -2.289468e+08 2621173.4
-7150807.5 -2.3625472e+08 1708516.5
-9281279.3 -2.4287132e+08 1542523.1
-7994277.8 -2.4830378e+08 1626235.3
-4683480.7 -2.5239795e+08 2413392.4
96754.032 -2.3628355e+08 2237916.8
-3596702 -2.4073695e+08 1466646
-5076281.4 -2.4439086e+08 1335402.3
-4724142.6 -2.4740283e+08 1415857.1
-3238587.7 -2.5014505e+08 2092891.9
688392.95 -2.4074433e+08 1939864.4
-1651655 -2.4348222e+08 1273993.5
-2780822.7 -2.4549745e+08 1165024.4
-2919079.2 -2.4721681e+08 1238119.2
-2378838.9 -2.4913901e+08 1825133.5
943284.61 -2.4356207e+08 1693988.6
-623622.96 -2.4528084e+08 1114126.2
-1531649.6 -2.4639475e+08 1019509.2
-1895960.7 -2.4740342e+08 1084249.2
-1836018.3 -2.4878924e+08 1597844
1009347.5 -2.4544377e+08 1481576
-100763.71 -2.4654057e+08 974029.32
-848835.11 -2.4715908e+08 893028.34
-1301139.6 -2.4776488e+08 951457.42
-1475285.3 -2.4877887e+08 1401806
981117.12 -2.4677836e+08 1293341.6
151655.32 -2.4747785e+08 851076.94
-476425.11 -2.4781953e+08 781507.68
-939815.95 -2.4819219e+08 833618.53
-1217595.5 -2.4893817e+08 1228929.2
901784.8 -2.4777359e+08 1121076.7
258005.82 -2.4820872e+08 738972.66
-272664.97 -2.4839225e+08 679530.07
-713684.93 -2.4862611e+08 726216.63
-1024805 -2.491743e+08 1073857.6
798860.14 -2.4854566e+08 960838.02
285564.65 -2.4879592e+08 635140.41
-164512.29 -2.4888897e+08 585928.99
-564964.59 -2.4903676e+08 628138.94
-871760.1 -2.494345e+08 932898.58
683349.32 -2.4915763e+08 809994.13
269201.86 -2.4927592e+08 537630.6
-108402.31 -2.4931479e+08 498197.33
-460384.79 -2.494086e+08 536971.07
-744235.15 -2.4969005e+08 802312.06
563923.75 -2.4964502e+08 665854.52
231261.95 -2.4966882e+08 445218.56
-81844.675 -2.4967372e+08 415035.47
-381829.1 -2.4973398e+08 450637.21
-632392.03 -2.4992633e+08 679732.74
442063.85 -2.5002726e+08 526635.55
181476.45 -2.4998538e+08 355598.76
-69849.554 -2.4996965e+08 335107.34
-317754.38 -2.5000938e+08 368058.67
-531088.9 -2.5013592e+08 563019.94
321482.12 -2.5031493e+08 390140.82
128245.01 -2.5023201e+08 268221.54
-65352.411 -2.5020565e+08 257160.53
-261886.91 -2.5023437e+08 287859.8
-436179.34 -2.5031539e+08 450293.86
201931.23 -2.5051154e+08 255449.84
74667.745 -2.5041241e+08 182143.67
-62356.802 -2.5038409e+08 180524.17
-208576.57 -2.5040928e+08 209203.24
-344428.34 -2.5046404e+08 340104.12
83191.522 -2.50617e+08 121700.53
23831.41 -2.505255e+08 96459.217
-54912.183 -2.5050496e+08 104570.2
-152277.06 -2.5053583e+08 131300.17
-252737.75 -2.505833e+08 231084.91
-30902.658 -2.5062425e+08 -13137.936
-15850.68 -2.5056752e+08 10760.334
-36081.213 -2.5056766e+08 28184.623
-86998.227 -2.5061664e+08 52951.318
-157343.32 -2.5067742e+08 121631.93
-138655.82 -2.5051747e+08 -150542.36
-34577.22 -2.505305e+08 -77041.617
8984.7239 -2.5057095e+08 -49724.882
-1655.4679 -2.5065763e+08 -26622.526
-53778.062 -2.5075466e+08 10119.956
-230944.7 -2.5026479e+08 -292748.95
-9661.8289 -2.5039728e+08 -167813.08
102753.2 -2.5051385e+08 -130085.03
121293.24 -2.506693e+08 -109050.43
66800.346 -2.5083068e+08 -105042.82
-295964.2 -2.498066e+08 -441716.42
94652.678 -2.5013438e+08 -262997.73
289197.11 -2.5039481e+08 -214854.19
314533.29 -2.5067081e+08 -196070.29
217204.38 -2.5093568e+08 -226460.04
-304628.56 -2.4902914e+08 -600463.2
347806.46 -2.4968186e+08 -364432.84
642780.66 -2.5020648e+08 -304415.12
635553.69 -2.5069706e+08 -287820.12
420689.96 -2.5112476e+08 -356161.11
-210814.95 -2.4772454e+08 -775928.23
879067.77 -2.4892555e+08 -477483.97
1309209.5 -2.4993839e+08 -403132.09
1183330.5 -2.5081487e+08 -387459.21
712893.78 -2.5149487e+08 -497093.76
85904.371 -2.4549721e+08 -975577.63
1933834.6 -2.476483e+08 -603328.3
2553694.2 -2.4956917e+08 -513549.96
2155990.9 -2.5114563e+08 -499173.83
1169800.9 -2.5222363e+08 -653816.03
744290.64 -2.4161967e+08 -1215582.5
3945654.5 -2.4543495e+08 -753115.59
4876870.1 -2.4903296e+08 -639466.33
3916645 -2.5190875e+08 -623059.65
1922655.3 -2.5364407e+08 -830349.11
2017765.5 -2.348118e+08 -1525019.7
7648418.6 -2.4147128e+08 -940489.89
9186484.2 -2.4813878e+08 -790189.98
7172947.2 -2.5348673e+08 -764632.82
3236653.7 -2.563813e+08 -1031300.9
4182801.1 -2.2302596e+08 -1975087
14104841 -2.3417599e+08 -1197116.7
17104361 -2.4624394e+08 -980406.03
13370313 -2.5648094e+08 -928530.83
5681047.7 -2.6167355e+08 -1261317.9
7426682.6 -2.0336994e+08 -2725416.9
24434057 -2.2079948e+08 -1633550.8
31253709 -2.4113567e+08 -1258751.6
25611829 -2.6156041e+08 -1120726.8
10616192 -2.7213765e+08 -1516020.5
11693000 -1.7488441e+08 -2637668
37177811 -1.9832899e+08 -2032361.2
53623008 -2.2668538e+08 -1703441.3
51132275 -2.6579695e+08 -1346903.8
22839362 -2.9459977e+08 -1799772.8
19249122 -1.3537482e+08 -2036820.9
53784492 -1.6680597e+08 -1329838.9
78663407 -1.9996065e+08 -1179878
99111118 -2.4563326e+08 -1099816
57333030 -3.4791859e+08 -1337985
-18041169 -1.3134271e+08 3558207
-51523093 -1.6153162e+08 2208039.1
-75771895 -1.9344538e+08 1736024.3
-96147697 -2.3716974e+08 1513852.1
-56632564 -3.3386348e+08 1336780.2
-11342401 -1.7188819e+08 3035659.2
-35829852 -1.923576e+08 2325222.2
-51640529 -2.1990676e+08 1892423.9
-49766158 -2.5761353e+08 1764143.4
-23249092 -2.8348503e+08 2337966.7
-6939614 -2.0003437e+08 2796353.2
-23121420 -2.146867e+08 2032200.6
-30299993 -2.3444809e+08 1695668.3
-25464699 -2.5441499e+08 1774434.3
-11270612 -2.6349473e+08 2327107.6
-3932119.5 -2.1899463e+08 2311999.6
-13450228 -2.2831575e+08 1714279.8
-16809721 -2.4019331e+08 1491779.2
-13618576 -2.504006e+08 1620298.8
-6320372.8 -2.5461226e+08 2097144.3
-1822827.7 -2.306349e+08 1946308.3
-7290550.1 -2.3608063e+08 1468417.3
-9182698.9 -2.4276229e+08 1305093.7
-7579064.9 -2.4822057e+08 1432518.3
-3858870 -2.5046568e+08 1841074.8
-564041.28 -2.3758119e+08 1670725.4
-3733406.9 -2.4059099e+08 1270175.7
-4998479.7 -2.4428804e+08 1138909.2
-4376081.8 -2.4731306e+08 1254849.3
-2526247.4 -2.4861644e+08 1608385.8
105960.74 -2.4174531e+08 1448854.8
-1781974.1 -2.4335815e+08 1105456.4
-2718513.9 -2.4540603e+08 995174.9
-2624553.9 -2.4713168e+08 1097881.6
-1760136.8 -2.4792835e+08 1406056.3
428721.22 -2.4432506e+08 1263667.8
-746278.19 -2.4517418e+08 966546.24
-1483609.1 -2.4631271e+08 869945.65
-1645355.7 -2.4732356e+08 959805.54
-1295793.2 -2.4783126e+08 1231275.1
554941.27 -2.4600951e+08 1103450.8
-213889.26 -2.4644696e+08 844011.47
-810441.95 -2.4708315e+08 760653.46
-1086784.6 -2.4768867e+08 840617.23
-1003101.2 -2.48024e+08 1079572.2
581691.95 -2.4718019e+08 962279.31
48520.674 -2.473922e+08 736801.27
-445929.32 -2.4774892e+08 664737.37
-756376.16 -2.4812154e+08 735182.82
-805077.99 -2.4834749e+08 945312.73
553939.79 -2.4803997e+08 833582.07
165368.37 -2.4813063e+08 639279.48
-249135.62 -2.4832645e+08 577229.98
-556693.62 -2.4855978e+08 639397.23
-664808.94 -2.4871654e+08 824768.12
499522.18 -2.4869969e+08 714382.2
204088.17 -2.487244e+08 549215.18
-145574.52 -2.4882732e+08 497282.05
-430593.55 -2.4897201e+08 552363.9
-559098.1 -2.4908516e+08 715182.77
430331.35 -2.4922086e+08 602655.25
198883.19 -2.4920937e+08 464843.01
-92766.619 -2.4925683e+08 422621.2
-346400.98 -2.493454e+08 471791.71
-475728.88 -2.4942841e+08 613600.74
355918.49 -2.4963773e+08 496310.62
172243.76 -2.4960757e+08 385111.35
-69313.996 -2.4961825e+08 352049.67
-286201.4 -2.4967271e+08 395717.02
-404624.86 -2.4973413e+08 518225.08
277128.38 -2.499692e+08 393757.75
133698.61 -2.4992875e+08 307769.82
-59101.396 -2.499163e+08 284307.35
-239217.88 -2.4994963e+08 323103.03
-342081.01 -2.4999717e+08 427396.07
199314.88 -2.502247e+08 293163.49
91988.828 -2.5017763e+08 232344.73
-56356.529 -2.5015388e+08 218248.51
-199466.9 -2.5017561e+08 252597.71
-284266.47 -2.5021525e+08 339487.47
122082.77 -2.5040581e+08 193980.21
49951.749 -2.5035877e+08 158077
-54884.971 -2.5033269e+08 153350.68
-161716.75 -2.5035052e+08 183508.63
-228669.64 -2.5038852e+08 253502.68
45050.709 -2.5051379e+08 95711.957
10415.063 -2.5047028e+08 84239.919
-48524.794 -2.5045346e+08 89130.972
-120815.36 -2.504766e+08 115188.53
-172881.88 -2.5051879e+08 168504.65
-26331.057 -2.5054207e+08 -3343.1465
-17843.4 -2.505102e+08 10502.207
-31592.507 -2.5051584e+08 24577.178
-70975.048 -2.5055666e+08 46463.974
-113340.58 -2.5061042e+08 83077.236
-91057.702 -2.5047467e+08 -104512.13
-25192.288 -2.5047165e+08 -65186.447
11954.877 -2.5051785e+08 -41333.377
-1754.4367 -2.5059748e+08 -23404.956
-46844.471 -2.5067088e+08 -4026.1899
-139208.17 -2.5028023e+08 -209510.52
11258.727 -2.5033567e+08 -143534.33
103609.13 -2.5045937e+08 -109447.17
104422.5 -2.5060929e+08 -95950.516
35990.582 -2.5071516e+08 -94005.477
-158190.66 -2.4989973e+08 -319801.09
126691.05 -2.5006952e+08 -225833.2
286425.14 -2.503388e+08 -181509.2
278981.46 -2.5060865e+08 -172797.03
146389.53 -2.5077193e+08 -188949.84
-118753.57 -2.4922362e+08 -437623.35
390840.13 -2.4961405e+08 -313627.67
636589.6 -2.5014916e+08 -257650.37
579276.23 -2.5063219e+08 -253915.57
306266.12 -2.5089251e+08 -290360.76
26821.774 -2.4804736e+08 -568561.24
933235.68 -2.4885058e+08 -411780.01
1299366.5 -2.4987989e+08 -341946.84
1104177 -2.5075011e+08 -342192.67
550935.59 -2.5117033e+08 -400223.29
381210.64 -2.4598067e+08 -717194.94
1998088 -2.4756291e+08 -520189.18
2537570.5 -2.4950729e+08 -435799.07
2050636.9 -2.5108036e+08 -441186.98
955704.71 -2.5177831e+08 -521811.37
1105500.1 -2.4231125e+08 -893436.12
4019735.6 -2.45336e+08 -647106.39
4855810.8 -2.4896661e+08 -540732.26
3781466.1 -2.5184421e+08 -549290.66
1649099.2 -2.530425e+08 -656735.6
2459733.2 -2.3579065e+08 -1111388.7
7729743.6 -2.4135442e+08 -798795.14
9157575.4 -2.4807312e+08 -660515.33
7002208.2 -2.5343234e+08 -668069.41
2895784 -2.5558032e+08 -805205.41
4731229.1 -2.2441602e+08 -1401855.6
14194289 -2.3404347e+08 -986888.8
17071251 -2.4619541e+08 -795149.31
13161868 -2.5645511e+08 -792142.35
5265294.6 -2.6062461e+08 -962639.23
7987664 -2.0544068e+08 -1779650.1
24397334 -2.2065794e+08 -1229558.7
31197485 -2.4111597e+08 -944232.43
25376914 -2.6162388e+08 -899385.49
10120074 -2.707989e+08 -1104973.8
12738179 -1.7689168e+08 -1832353.8
37855287 -1.9822702e+08 -1415946.5
53705811 -2.2686823e+08 -1078829.5
50845477 -2.6622363e+08 -895936.69
22246172 -2.9297619e+08 -1164076
19906582 -1.3622493e+08 -1758945.8
54353332 -1.6692659e+08 -1162093.2
79226145 -2.0016403e+08 -852652.6
99939462 -2.4589712e+08 -697741.62
57556625 -3.471297e+08 -635413.22
-18531615 -1.3125757e+08 1644555.6
-52150996 -1.6169073e+08 1320563.9
-76140270 -1.9366602e+08 1001886.7
-96388528 -2.3747065e+08 838916.6
-56734146 -3.3465408e+08 829405.6
-11682856 -1.7143549e+08 1661507.7
-36244652 -1.923508e+08 1350621.6
-51861531 -2.1991705e+08 1100425.9
-49736131 -2.5772176e+08 1034290.1
-23126902 -2.8405413e+08 1121043.6
-7257759.1 -1.9955751e+08 1530748.6
-23451045 -2.1452445e+08 1267746.9
-30365959 -2.3433299e+08 1077636.3
-25254021 -2.5434444e+08 1089707.4
-11044264 -2.6366317e+08 1203696.8
-4195701.2 -2.1852832e+08 1342026.8
-13689042 -2.2814315e+08 1117141.3
-16804894 -2.4005266e+08 984997.15
-13380674 -2.5024356e+08 1031482.9
-6091531.2 -2.5462873e+08 1139434.2
-2046703.4 -2.3026704e+08 1148042.4
-7478674.8 -2.3593405e+08 969289.95
-9157903.7 -2.4262398e+08 874392.5
-7358265.1 -2.4805291e+08 928284.88
-3647748 -2.5042962e+08 1026369.6
-757163.99 -2.3729113e+08 986608.61
-3891149.8 -2.4046651e+08 841320.82
-4972150.6 -2.4416306e+08 767299.19
-4181732.8 -2.471592e+08 819337.01
-2337146.7 -2.485639e+08 908106.39
-62951.866 -2.4151101e+08 854120.86
-1919349.3 -2.4325158e+08 732387.04
-2695840.7 -2.452963e+08 671115.05
-2455870 -2.4699673e+08 718661.78
-1592553 -2.4787087e+08 799089.19
280185.73 -2.4413225e+08 742975.3
-867894.12 -2.4508098e+08 639040.26
-1465925.5 -2.4621653e+08 586741.84
-1499229.4 -2.4720673e+08 629404.6
-1147444 -2.4777253e+08 702184.44
423934.59 -2.4584863e+08 647309.86
-321931.97 -2.463639e+08 557855.62
-796473.08 -2.4699876e+08 512724.43
-960008.25 -2.4758728e+08 550927.04
-872293.51 -2.4796462e+08 616629.85
466740.36 -2.4704433e+08 562994.68
-46911.543 -2.473168e+08 486003.57
-434883.31 -2.4767344e+08 447211.97
-646315.37 -2.4803194e+08 481352.91
-690013.3 -2.4828702e+08 540412.82
454063.51 -2.4792344e+08 486951.9
82048.526 -2.4806039e+08 421157.51
-240206.08 -2.4825761e+08 388153.19
-461104.07 -2.4847943e+08 418717.91
-563911.64 -2.4865495e+08 471693.26
413838.91 -2.4859855e+08 416978.73
132540.34 -2.4865805e+08 361525.22
-137862.83 -2.4876376e+08 334054.74
-347722.85 -2.4889915e+08 361537.47
-471166.6 -2.4902236e+08 408765.46
358192.23 -2.491318e+08 351501.94
138748.17 -2.4914601e+08 305819.97
-85682.298 -2.4919721e+08 283753.51
-274907.48 -2.4927814e+08 308518.83
-399851.98 -2.4936415e+08 350402.41
296885.64 -2.4955775e+08 289423.64
123312.93 -2.4954621e+08 253030.21
-62457.422 -2.4956148e+08 236245.23
-225073.39 -2.4960956e+08 258629.48
-340028.78 -2.4966843e+08 295454.32
230779.07 -2.4989565e+08 229608.68
95841.198 -2.4986859e+08 202235.08
-52014.828 -2.498614e+08 190691.97
-187648.01 -2.4988944e+08 210987.75
-288160.59 -2.4993023e+08 243053.51
165539.3 -2.5015522e+08 171229.19
65215.411 -2.5011827e+08 152730.54
-48818.088 -2.5010016e+08 146453.69
-156967.12 -2.5011738e+08 164820.59
-240661.38 -2.5014732e+08 192252.21
100761.66 -2.503384e+08 113718.2
34223.885 -2.5029986e+08 104012.18
-46745.384 -2.5027971e+08 103012.08
-127967.08 -2.5029341e+08 119581.57
-195132.73 -2.5031975e+08 142510.79
36055.237 -2.5044621e+08 56543.632
5649.2497 -2.5041149e+08 55599.309
-39699.297 -2.5040059e+08 59876.975
-95648.746 -2.5041972e+08 74755.518
-149269.52 -2.5044944e+08 93320.261
-22824.922 -2.5047193e+08 -1039.0786
-11584.949 -2.5045083e+08 6886.5706
-22204.989 -2.5046226e+08 16502.643
-54503.55 -2.5049907e+08 29686.472
-99732.903 -2.5054074e+08 43847.008
-74866.515 -2.5039938e+08 -59988.048
-7754.4646 -2.5041093e+08 -42900.957
21890.983 -2.5046271e+08 -27777.508
5787.7261 -2.5053805e+08 -16309.825
-43446.839 -2.5060096e+08 -6552.97
-109948.2 -2.5019704e+08 -121152.7
40208.282 -2.5027299e+08 -94533.503
113966.81 -2.5040168e+08 -73722.792
102585.9 -2.5054664e+08 -63979.651
28895.006 -2.5064489e+08 -58711.289
-115260.79 -2.4980551e+08 -185740.6
167501.98 -2.50004e+08 -148964.6
296889.23 -2.5027772e+08 -122124.05
267087.47 -2.5054179e+08 -114178.18
128315.62 -2.5070144e+08 -113403.95
-61476.786 -2.4911374e+08 -255486
444073.88 -2.4954375e+08 -207521.6
647115.64 -2.5008307e+08 -173994.53
556418 -2.5055956e+08 -167815.73
276473.23 -2.5082204e+08 -171709.99
99577.393 -2.479163e+08 -332836.93
999964 -2.4877369e+08 -272003.69
1310144.8 -2.4980673e+08 -230804.51
1069413.1 -2.5066933e+08 -226135.43
508609 -2.5109978e+08 -234661.65
471870.88 -2.4582068e+08 -421144.33
2080570.4 -2.474769e+08 -344589.83
2548501.7 -2.4942606e+08 -293774.02
2002906.9 -2.509901e+08 -290216.39
900314.87 -2.5170842e+08 -303356.7
1217222.6 -2.4211059e+08 -525237.55
4122262.6 -2.4523698e+08 -428135.7
4869329.6 -2.4887573e+08 -364101.9
3720212.8 -2.5174435e+08 -360351.2
1579643.8 -2.5297604e+08 -377996.02
2597812.1 -2.3553144e+08 -651062.73
7860600.2 -2.4123886e+08 -525664.98
9178517.4 -2.4797274e+08 -441795.2
6928711.3 -2.5332549e+08 -434890.89
2812755 -2.5552387e+08 -456826.44
4902349.4 -2.2408585e+08 -798809.51
14368744 -2.3390936e+08 -637399.63
17112215 -2.4609176e+08 -522767.29
13082876 -2.563536e+08 -506492.83
5171721.3 -2.6059631e+08 -532408.03
8202325.7 -2.0514635e+08 -923028.92
24644992 -2.205471e+08 -744242.51
31290446 -2.4103288e+08 -591180.01
25314758 -2.6157387e+08 -552889.93
10023585 -2.7084291e+08 -583166.13
12945739 -1.7674261e+08 -955375.64
38141916 -1.9828254e+08 -775901.71
53902774 -2.2690283e+08 -601233.7
50882859 -2.6629102e+08 -529798.84
22195318 -2.9323995e+08 -554316.47
20174775 -1.3613301e+08 -904945.52
54746299 -1.6704922e+08 -720971.76
79497479 -2.0034135e+08 -522362.05
1.0008231e+08 -2.4609073e+08 -418270.49
57595728 -3.4751073e+08 -412320.51
-18693513 -1.3130225e+08 514681.04
-52385094 -1.6177017e+08 421256.25
-76329453 -1.9376938e+08 329178.83
-96516041 -2.3762576e+08 273403.4
-56781779 -3.3490309e+08 260875.28
-11814575 -1.7141622e+08 522287.49
-36417118 -1.92339e+08 440520.15
-51974466 -2.1994635e+08 364752.25
-49765911 -2.5780982e+08 336010.73
-23108481 -2.8415781e+08 352608.57
-7367232.4 -1.9947634e+08 493381.63
-23571282 -2.1445678e+08 420412.83
-30413228 -2.3430173e+08 365064.21
-25218128 -2.5434784e+08 358097.17
-10990907 -2.6366074e+08 381021.5
-4288466.8 -2.1842409e+08 439653.73
-13773702 -2.2805346e+08 379025.92
-16813282 -2.3998983e+08 340289.27
-13317369 -2.5019375e+08 344937.34
-6026133.7 -2.5456773e+08 368085.67
-2124805.6 -2.3016753e+08 381151
-7541112.8 -2.3584858e+08 332221.43
-9151108.2 -2.4255395e+08 304825.2
-7291201.4 -2.4798494e+08 313983.19
-3582342.8 -2.5035189e+08 335684.91
-824113.39 -2.3720731e+08 328684.94
-3941284.2 -2.4039202e+08 289160.45
-4961819.5 -2.4409688e+08 268464.75
-4119606.4 -2.4709115e+08 278664.91
-2276140.3 -2.4848771e+08 298868.26
-121349.44 -2.4144081e+08 284613.66
-1962273 -2.4318764e+08 251808.6
-2686188 -2.4523729e+08 235084.56
-2400773 -2.4693473e+08 245030.54
-1537162.3 -2.4780184e+08 263772.54
228785.53 -2.4407232e+08 247407.99
-905783.86 -2.4502578e+08 219591.95
-1457981.8 -2.4616471e+08 205555.47
-1451063.8 -2.4715181e+08 214835.1
-1097783.8 -2.4771135e+08 232102.27
378635.58 -2.4579629e+08 215359.62
-355653.59 -2.4631553e+08 191554.02
-790199.9 -2.4695311e+08 179589.63
-918059.22 -2.475387e+08 188091.31
-828073.75 -2.4791036e+08 203925.13
426970.81 -2.4699751e+08 187129.96
-76797.202 -2.4727365e+08 166749.22
-429887.93 -2.4763271e+08 156561.16
-609833.57 -2.4798849e+08 164333.13
-650903.8 -2.482384e+08 178752.88
419466.24 -2.4788061e+08 161747.6
55882.625 -2.4802119e+08 144416.07
-236101.1 -2.4822062e+08 135832.34
-429343.76 -2.4844003e+08 142928.08
-529464.7 -2.4861083e+08 155992.5
384128.05 -2.4855868e+08 138451.18
110046.58 -2.486218e+08 123906.64
-134265.56 -2.4872965e+08 116862.14
-320158.15 -2.4886288e+08 123373.07
-441101.33 -2.4898172e+08 135128.78
333207.22 -2.4909415e+08 116699.69
119918.58 -2.4911194e+08 104784.23
-82343.725 -2.4916525e+08 99233.779
-251044.15 -2.4924426e+08 105241.6
-373830.4 -2.493262e+08 115780.19
276468.24 -2.4952167e+08 96080.235
108124.54 -2.4951376e+08 86678.986
-59157.287 -2.4953108e+08 82595.661
-204615.02 -2.4957741e+08 88179.208
-317877.47 -2.496325e+08 97547.742
214797.14 -2.4986062e+08 76252.331
84271.15 -2.498372e+08 69277.002
-48577.511 -2.4983209e+08 66655.445
-170292.41 -2.498585e+08 71872.421
-269663.25 -2.4989574e+08 80120.685
153941.13 -2.5012086e+08 56919.253
57268.541 -2.5008754e+08 52349.62
-45132.188 -2.5007155e+08 51189.973
-142543.87 -2.500872e+08 56090.104
-225713.09 -2.5011379e+08 63254.641
93510.597 -2.5030437e+08 37881.23
29904.629 -2.502695e+08 35696.8
-42738.559 -2.5025145e+08 36005.441
-116363.38 -2.5026368e+08 40622.909
-183654.73 -2.5028674e+08 46734.791
33129.808 -2.5041216e+08 18950.955
4963.8872 -2.5038113e+08 19127.025
-35333.977 -2.5037234e+08 20918.193
-86803.316 -2.5039004e+08 25272.136
-141205.96 -2.5041653e+08 30356.248
-21367.127 -2.5043742e+08 -139.59183
-8597.3554 -2.5042e+08 2446.9145
-17494.984 -2.5043363e+08 5738.7094
-48473.59 -2.5046901e+08 9846.5485
-95134.853 -2.5050745e+08 13911.825
-68942.016 -2.5036388e+08 -19668.604
-1042.7152 -2.5037918e+08 -14605.212
26912.887 -2.5043325e+08 -9764.2092
8979.8776 -2.5050712e+08 -5900.4075
-42311.435 -2.5056681e+08 -2836.5605