# vtk DataFile Version 2.0
Mesh3D
ASCII

DATASET UNSTRUCTURED_GRID
POINTS 92302 float
7.875  -3.26193  0.75
7.675  -3.17909  0.75
7.675  -2.97399  0.75
7.875  -3.05148  0.75
7.875  -3.26193  0.5625
7.675  -3.17909  0.5625
7.675  -2.97399  0.5625
7.875  -3.05148  0.5625
7.775  -3.22051  0.75
7.675  -3.07654  0.75
7.775  -3.01274  0.75
7.875  -3.15671  0.75
7.875  -3.26193  0.65625
7.675  -3.17909  0.65625
7.675  -2.97399  0.65625
7.875  -3.05148  0.65625
7.775  -3.22051  0.5625
7.675  -3.07654  0.5625
7.775  -3.01274  0.5625
7.875  -3.15671  0.5625
7.775  -3.11662  0.65625
7.775  -3.11662  0.75
7.775  -3.11662  0.5625
7.875  -3.15671  0.65625
7.675  -3.07654  0.65625
7.775  -3.22051  0.65625
7.775  -3.01274  0.65625
7.475  -3.09625  0.75
7.475  -2.89649  0.75
7.475  -3.09625  0.5625
7.475  -2.89649  0.5625
7.575  -3.13767  0.75
7.475  -2.99637  0.75
7.575  -2.93524  0.75
7.475  -3.09625  0.65625
7.475  -2.89649  0.65625
7.575  -3.13767  0.5625
7.475  -2.99637  0.5625
7.575  -2.93524  0.5625
7.575  -3.03645  0.65625
7.575  -3.03645  0.75
7.575  -3.03645  0.5625
7.475  -2.99637  0.65625
7.575  -3.13767  0.65625
7.575  -2.93524  0.65625
7.275  -3.0134  0.75
7.275  -2.81899  0.75
7.275  -3.0134  0.5625
7.275  -2.81899  0.5625
7.375  -3.05483  0.75
7.275  -2.9162  0.75
7.375  -2.85774  0.75
7.275  -3.0134  0.65625
7.275  -2.81899  0.65625
7.375  -3.05483  0.5625
7.275  -2.9162  0.5625
7.375  -2.85774  0.5625
7.375  -2.95628  0.65625
7.375  -2.95628  0.75
7.375  -2.95628  0.5625
7.275  -2.9162  0.65625
7.375  -3.05483  0.65625
7.375  -2.85774  0.65625
7.075  -2.93056  0.75
7.075  -2.74149  0.75
7.075  -2.93056  0.5625
7.075  -2.74149  0.5625
7.175  -2.97198  0.75
7.075  -2.83603  0.75
7.175  -2.78024  0.75
7.075  -2.93056  0.65625
7.075  -2.74149  0.65625
7.175  -2.97198  0.5625
7.075  -2.83603  0.5625
7.175  -2.78024  0.5625
7.175  -2.87611  0.65625
7.175  -2.87611  0.75
7.175  -2.87611  0.5625
7.075  -2.83603  0.65625
7.175  -2.97198  0.65625
7.175  -2.78024  0.65625
6.875  -2.84772  0.75
6.875  -2.66399  0.75
6.875  -2.84772  0.5625
6.875  -2.66399  0.5625
6.975  -2.88914  0.75
6.875  -2.75586  0.75
6.975  -2.70274  0.75
6.875  -2.84772  0.65625
6.875  -2.66399  0.65625
6.975  -2.88914  0.5625
6.875  -2.75586  0.5625
6.975  -2.70274  0.5625
6.975  -2.79594  0.65625
6.975  -2.79594  0.75
6.975  -2.79594  0.5625
6.875  -2.75586  0.65625
6.975  -2.88914  0.65625
6.975  -2.70274  0.65625
7.675  -2.76888  0.75
7.875  -2.84104  0.75
7.675  -2.76888  0.5625
7.875  -2.84104  0.5625
7.675  -2.87144  0.75
7.775  -2.80496  0.75
7.875  -2.94626  0.75
7.675  -2.76888  0.65625
7.875  -2.84104  0.65625
7.675  -2.87144  0.5625
7.775  -2.80496  0.5625
7.875  -2.94626  0.5625
7.775  -2.90885  0.65625
7.775  -2.90885  0.75
7.775  -2.90885  0.5625
7.875  -2.94626  0.65625
7.675  -2.87144  0.65625
7.775  -2.80496  0.65625
7.475  -2.69673  0.75
7.475  -2.69673  0.5625
7.475  -2.79661  0.75
7.575  -2.73281  0.75
7.475  -2.69673  0.65625
7.475  -2.79661  0.5625
7.575  -2.73281  0.5625
7.575  -2.83402  0.65625
7.575  -2.83402  0.75
7.575  -2.83402  0.5625
7.475  -2.79661  0.65625
7.575  -2.73281  0.65625
7.275  -2.62458  0.75
7.275  -2.62458  0.5625
7.275  -2.72178  0.75
7.375  -2.66065  0.75
7.275  -2.62458  0.65625
7.275  -2.72178  0.5625
7.375  -2.66065  0.5625
7.375  -2.7592  0.65625
7.375  -2.7592  0.75
7.375  -2.7592  0.5625
7.275  -2.72178  0.65625
7.375  -2.66065  0.65625
7.075  -2.55242  0.75
7.075  -2.55242  0.5625
7.075  -2.64696  0.75
7.175  -2.5885  0.75
7.075  -2.55242  0.65625
7.075  -2.64696  0.5625
7.175  -2.5885  0.5625
7.175  -2.68437  0.65625
7.175  -2.68437  0.75
7.175  -2.68437  0.5625
7.075  -2.64696  0.65625
7.175  -2.5885  0.65625
6.875  -2.48027  0.75
6.875  -2.48027  0.5625
6.875  -2.57213  0.75
6.975  -2.51635  0.75
6.875  -2.48027  0.65625
6.875  -2.57213  0.5625
6.975  -2.51635  0.5625
6.975  -2.60955  0.65625
6.975  -2.60955  0.75
6.975  -2.60955  0.5625
6.875  -2.57213  0.65625
6.975  -2.51635  0.65625
7.675  -2.56378  0.75
7.875  -2.63059  0.75
7.675  -2.56378  0.5625
7.875  -2.63059  0.5625
7.675  -2.66633  0.75
7.775  -2.59719  0.75
7.875  -2.73581  0.75
7.675  -2.56378  0.65625
7.875  -2.63059  0.65625
7.675  -2.66633  0.5625
7.775  -2.59719  0.5625
7.875  -2.73581  0.5625
7.775  -2.70107  0.65625
7.775  -2.70107  0.75
7.775  -2.70107  0.5625
7.875  -2.73581  0.65625
7.675  -2.66633  0.65625
7.775  -2.59719  0.65625
7.475  -2.49697  0.75
7.475  -2.49697  0.5625
7.475  -2.59685  0.75
7.575  -2.53038  0.75
7.475  -2.49697  0.65625
7.475  -2.59685  0.5625
7.575  -2.53038  0.5625
7.575  -2.63159  0.65625
7.575  -2.63159  0.75
7.575  -2.63159  0.5625
7.475  -2.59685  0.65625
7.575  -2.53038  0.65625
7.275  -2.43016  0.75
7.275  -2.43016  0.5625
7.275  -2.52737  0.75
7.375  -2.46357  0.75
7.275  -2.43016  0.65625
7.275  -2.52737  0.5625
7.375  -2.46357  0.5625
7.375  -2.56211  0.65625
7.375  -2.56211  0.75
7.375  -2.56211  0.5625
7.275  -2.52737  0.65625
7.375  -2.46357  0.65625
7.075  -2.36336  0.75
7.075  -2.36336  0.5625
7.075  -2.45789  0.75
7.175  -2.39676  0.75
7.075  -2.36336  0.65625
7.075  -2.45789  0.5625
7.175  -2.39676  0.5625
7.175  -2.49263  0.65625
7.175  -2.49263  0.75
7.175  -2.49263  0.5625
7.075  -2.45789  0.65625
7.175  -2.39676  0.65625
6.875  -2.29655  0.75
6.875  -2.29655  0.5625
6.875  -2.38841  0.75
6.975  -2.32995  0.75
6.875  -2.29655  0.65625
6.875  -2.38841  0.5625
6.975  -2.32995  0.5625
6.975  -2.42315  0.65625
6.975  -2.42315  0.75
6.975  -2.42315  0.5625
6.875  -2.38841  0.65625
6.975  -2.32995  0.65625
7.675  -2.35868  0.75
7.875  -2.42014  0.75
7.675  -2.35868  0.5625
7.875  -2.42014  0.5625
7.675  -2.46123  0.75
7.775  -2.38941  0.75
7.875  -2.52537  0.75
7.675  -2.35868  0.65625
7.875  -2.42014  0.65625
7.675  -2.46123  0.5625
7.775  -2.38941  0.5625
7.875  -2.52537  0.5625
7.775  -2.4933  0.65625
7.775  -2.4933  0.75
7.775  -2.4933  0.5625
7.875  -2.52537  0.65625
7.675  -2.46123  0.65625
7.775  -2.38941  0.65625
7.475  -2.29722  0.75
7.475  -2.29722  0.5625
7.475  -2.39709  0.75
7.575  -2.32795  0.75
7.475  -2.29722  0.65625
7.475  -2.39709  0.5625
7.575  -2.32795  0.5625
7.575  -2.42916  0.65625
7.575  -2.42916  0.75
7.575  -2.42916  0.5625
7.475  -2.39709  0.65625
7.575  -2.32795  0.65625
7.275  -2.23575  0.75
7.275  -2.23575  0.5625
7.275  -2.33296  0.75
7.375  -2.26648  0.75
7.275  -2.23575  0.65625
7.275  -2.33296  0.5625
7.375  -2.26648  0.5625
7.375  -2.36503  0.65625
7.375  -2.36503  0.75
7.375  -2.36503  0.5625
7.275  -2.33296  0.65625
7.375  -2.26648  0.65625
7.075  -2.17429  0.75
7.075  -2.17429  0.5625
7.075  -2.26882  0.75
7.175  -2.20502  0.75
7.075  -2.17429  0.65625
7.075  -2.26882  0.5625
7.175  -2.20502  0.5625
7.175  -2.30089  0.65625
7.175  -2.30089  0.75
7.175  -2.30089  0.5625
7.075  -2.26882  0.65625
7.175  -2.20502  0.65625
6.875  -2.11282  0.75
6.875  -2.11282  0.5625
6.875  -2.20469  0.75
6.975  -2.14356  0.75
6.875  -2.11282  0.65625
6.875  -2.20469  0.5625
6.975  -2.14356  0.5625
6.975  -2.23675  0.65625
6.975  -2.23675  0.75
6.975  -2.23675  0.5625
6.875  -2.20469  0.65625
6.975  -2.14356  0.65625
7.675  -2.15358  0.75
7.875  -2.2097  0.75
7.675  -2.15358  0.5625
7.875  -2.2097  0.5625
7.675  -2.25613  0.75
7.775  -2.18164  0.75
7.875  -2.31492  0.75
7.675  -2.15358  0.65625
7.875  -2.2097  0.65625
7.675  -2.25613  0.5625
7.775  -2.18164  0.5625
7.875  -2.31492  0.5625
7.775  -2.28552  0.65625
7.775  -2.28552  0.75
7.775  -2.28552  0.5625
7.875  -2.31492  0.65625
7.675  -2.25613  0.65625
7.775  -2.18164  0.65625
7.475  -2.09746  0.75
7.475  -2.09746  0.5625
7.475  -2.19734  0.75
7.575  -2.12552  0.75
7.475  -2.09746  0.65625
7.475  -2.19734  0.5625
7.575  -2.12552  0.5625
7.575  -2.22673  0.65625
7.575  -2.22673  0.75
7.575  -2.22673  0.5625
7.475  -2.19734  0.65625
7.575  -2.12552  0.65625
7.275  -2.04134  0.75
7.275  -2.04134  0.5625
7.275  -2.13854  0.75
7.375  -2.0694  0.75
7.275  -2.04134  0.65625
7.275  -2.13854  0.5625
7.375  -2.0694  0.5625
7.375  -2.16794  0.65625
7.375  -2.16794  0.75
7.375  -2.16794  0.5625
7.275  -2.13854  0.65625
7.375  -2.0694  0.65625
7.075  -1.98522  0.75
7.075  -1.98522  0.5625
7.075  -2.07975  0.75
7.175  -2.01328  0.75
7.075  -1.98522  0.65625
7.075  -2.07975  0.5625
7.175  -2.01328  0.5625
7.175  -2.10915  0.65625
7.175  -2.10915  0.75
7.175  -2.10915  0.5625
7.075  -2.07975  0.65625
7.175  -2.01328  0.65625
6.875  -1.9291  0.75
6.875  -1.9291  0.5625
6.875  -2.02096  0.75
6.975  -1.95716  0.75
6.875  -1.9291  0.65625
6.875  -2.02096  0.5625
6.975  -1.95716  0.5625
6.975  -2.05036  0.65625
6.975  -2.05036  0.75
6.975  -2.05036  0.5625
6.875  -2.02096  0.65625
6.975  -1.95716  0.65625
7.675  -1.94847  0.75
7.875  -1.99925  0.75
7.675  -1.94847  0.5625
7.875  -1.99925  0.5625
7.675  -2.05103  0.75
7.775  -1.97386  0.75
7.875  -2.10447  0.75
7.675  -1.94847  0.65625
7.875  -1.99925  0.65625
7.675  -2.05103  0.5625
7.775  -1.97386  0.5625
7.875  -2.10447  0.5625
7.775  -2.07775  0.65625
7.775  -2.07775  0.75
7.775  -2.07775  0.5625
7.875  -2.10447  0.65625
7.675  -2.05103  0.65625
7.775  -1.97386  0.65625
7.475  -1.8977  0.75
7.475  -1.8977  0.5625
7.475  -1.99758  0.75
7.575  -1.92309  0.75
7.475  -1.8977  0.65625
7.475  -1.99758  0.5625
7.575  -1.92309  0.5625
7.575  -2.0243  0.65625
7.575  -2.0243  0.75
7.575  -2.0243  0.5625
7.475  -1.99758  0.65625
7.575  -1.92309  0.65625
7.275  -1.84692  0.75
7.275  -1.84692  0.5625
7.275  -1.94413  0.75
7.375  -1.87231  0.75
7.275  -1.84692  0.65625
7.275  -1.94413  0.5625
7.375  -1.87231  0.5625
7.375  -1.97085  0.65625
7.375  -1.97085  0.75
7.375  -1.97085  0.5625
7.275  -1.94413  0.65625
7.375  -1.87231  0.65625
7.075  -1.79615  0.75
7.075  -1.79615  0.5625
7.075  -1.89068  0.75
7.175  -1.82154  0.75
7.075  -1.79615  0.65625
7.075  -1.89068  0.5625
7.175  -1.82154  0.5625
7.175  -1.91741  0.65625
7.175  -1.91741  0.75
7.175  -1.91741  0.5625
7.075  -1.89068  0.65625
7.175  -1.82154  0.65625
6.875  -1.74538  0.75
6.875  -1.74538  0.5625
6.875  -1.83724  0.75
[...]
CELL_DATA 9520
VECTORS current_real float
-5634771.4 -83771390 7026814.4
-27506988 -1.0398507e+08 3898050.7
-44336473 -1.2371691e+08 3392143
-57866802 -1.5085796e+08 3277507.2
-35384239 -2.1274855e+08 3698158.8
-2149565.6 -1.0679047e+08 6133140.1
-18720794 -1.2463199e+08 4200368.4
-30275136 -1.4138503e+08 3583177.1
-30630553 -1.6463947e+08 3174248.5
-15715042 -1.845152e+08 4075020.5
-331394.49 -1.2561475e+08 5760473
-12030590 -1.3961498e+08 3519539.8
-17466995 -1.5173761e+08 2887204.1
-15660188 -1.6419859e+08 2701201.1
-8079888.9 -1.7287511e+08 3537110
1026250.2 -1.3951954e+08 4682877.4
-6227333.4 -1.4899316e+08 2872231.6
-9270466.2 -1.562853e+08 2417475.7
-8311416.5 -1.6275661e+08 2323909
-4808177.4 -1.6769514e+08 3036256.5
1855684.8 -1.4835444e+08 3962695.5
-2668447.6 -1.5460725e+08 2444299.3
-4676385.8 -1.5870522e+08 2076309.2
-4547557.6 -1.6220169e+08 2012018.6
-3133102.4 -1.6539315e+08 2619603.1
2252972.7 -1.5399059e+08 3420230.9
-680852.74 -1.5809713e+08 2113274.2
-2193986.8 -1.6034655e+08 1801979.2
-2555449.4 -1.6230178e+08 1752048.8
-2197649.8 -1.6451131e+08 2277148.9
2342665.7 -1.5769081e+08 2975814.4
335159.21 -1.6042099e+08 1839954.9
-885006.25 -1.6163967e+08 1572279.5
-1477621.6 -1.6275949e+08 1531684.2
-1641407.6 -1.6434795e+08 1990651.2
2253919 -1.6024584e+08 2594018.9
799604.47 -1.620818e+08 1605506.3
-218369.43 -1.6272681e+08 1373258.5
-888491.34 -1.6337794e+08 1340101.6
-1291973.2 -1.645431e+08 1745968.6
2069024.2 -1.6211097e+08 2254435.2
962631.2 -1.6334096e+08 1396449.3
101812.05 -1.6366527e+08 1197143.6
-567216.54 -1.6404327e+08 1171972.8
-1062215.6 -1.649033e+08 1532920.1
1841024.3 -1.6353918e+08 1945652
966679.62 -1.6433875e+08 1207803.5
233091.59 -1.6447941e+08 1038552.1
-391779.65 -1.6469348e+08 1020790.6
-900748.45 -1.6532535e+08 1343294.2
1592634.2 -1.6466769e+08 1658542.7
886705.93 -1.651515e+08 1033176.4
262673.37 -1.6518371e+08 892001.75
-300868.41 -1.6529568e+08 881825.53
-782702.26 -1.657532e+08 1171525.1
1338162.3 -1.6557493e+08 1387760.1
762819 -1.6582136e+08 869179.5
235105.56 -1.6578876e+08 755325.55
-258353.07 -1.6583417e+08 753048.96
-691590.08 -1.6615526e+08 1013725.5
1082168.2 -1.6630466e+08 1129492.4
615308.02 -1.6637344e+08 713211.21
176918.21 -1.6630003e+08 625801.92
-243441.2 -1.6630139e+08 631888.55
-618043.22 -1.6651468e+08 866279.64
828345.13 -1.6688241e+08 880175.18
457069.6 -1.6682207e+08 563433.44
101493.65 -1.6672177e+08 501662.22
-245002.21 -1.6669415e+08 516156.51
-555642.46 -1.6682314e+08 726791.28
576015.01 -1.6732277e+08 637221.14
293120.32 -1.6717525e+08 417442.48
17664.71 -1.6705771e+08 381338.34
-255915.94 -1.6701143e+08 404485.53
-500960.81 -1.670767e+08 593080.13
326246.2 -1.6763395e+08 397897.51
127909.31 -1.6743795e+08 274079.43
-70742.932 -1.6731072e+08 263308.83
-272570.61 -1.6725379e+08 295407.19
-451390.43 -1.6727362e+08 463367.5
77533.445 -1.67819e+08 160373.24
-37593.378 -1.6761318e+08 132005.18
-160574.07 -1.6748288e+08 146572.13
-291682.29 -1.6742198e+08 187842.02
-404869.94 -1.6741365e+08 336128.21
-171600.24 -1.6787823e+08 -77123.772
-202430.07 -1.6770048e+08 -10081.832
-248718.21 -1.6757443e+08 30169.808
-310070.44 -1.6751726e+08 80759.257
-359475.16 -1.6749779e+08 209921.99
-419961.91 -1.6780689e+08 -317159.41
-362133.92 -1.6769749e+08 -153197.38
-331473.1 -1.6758491e+08 -87280.171
-324404.34 -1.6754122e+08 -27131.826
-312980.02 -1.6752853e+08 83246.804
-668010.21 -1.6759392e+08 -562011.47
-511610.75 -1.6759895e+08 -299526.89
-400138.78 -1.6751321e+08 -207100.54
-328017.04 -1.6749723e+08 -136897.31
-262631.35 -1.6751068e+08 -45559.554
-911590.8 -1.672174e+08 -814786.67
-637606.07 -1.6739339e+08 -450547.56
-441339.53 -1.6735803e+08 -330684.7
-310341.18 -1.6739129e+08 -250276.14
-203002.51 -1.6745359e+08 -178116.97
-1145330.7 -1.6663689e+08 -1078618.9
-718914.93 -1.6705862e+08 -608351.77
-428106.6 -1.6711743e+08 -460202.35
-251148.16 -1.6723457e+08 -369160.85
-126131.61 -1.6737561e+08 -316900.97
-1353318.5 -1.6577631e+08 -1357924.3
-713212.78 -1.665552e+08 -775584.36
-314415.3 -1.6678514e+08 -597032.39
-114562.25 -1.6704777e+08 -494601.15
-17416.198 -1.6731067e+08 -464131.28
-1509863.4 -1.6449811e+08 -1660551.2
-540550.86 -1.6580856e+08 -957702.71
-9006.6983 -1.6635231e+08 -745600.14
161472.1 -1.6687138e+08 -629965.59
145531.41 -1.6731901e+08 -622960.09
-1555947.6 -1.6254237e+08 -1996080.3
-47646.166 -1.6467751e+08 -1158229.4
655118.73 -1.6580227e+08 -909751.85
702437.29 -1.667798e+08 -779816.25
411089.18 -1.6751185e+08 -798061.51
-1398301.8 -1.594328e+08 -2382363
1037665.5 -1.6289291e+08 -1388769.5
1994908.4 -1.6508809e+08 -1095220.8
1738894 -1.669087e+08 -946780.09
862886.03 -1.6809901e+08 -994415.63
-888375.14 -1.543306e+08 -2850850.7
3177770.7 -1.5992733e+08 -1665353.5
4586566.4 -1.6408007e+08 -1313376.3
3721448.8 -1.6749536e+08 -1138416.7
1670496.7 -1.6947544e+08 -1218494.4
125278.29 -1.4588443e+08 -3474528.5
7043494 -1.5475568e+08 -2022481.9
9462460.9 -1.6235305e+08 -1583081.5
7572788 -1.6891169e+08 -1364273.7
3198580.9 -1.7242504e+08 -1478814
1760878.4 -1.3210105e+08 -4419091.2
13384954 -1.4559401e+08 -2573470.3
18305039 -1.5846686e+08 -1959461.1
15274158 -1.7156494e+08 -1640431.4
6316660.4 -1.786032e+08 -1781052.2
3966102.8 -1.1299844e+08 -4580675.6
20828796 -1.3044968e+08 -3110647.2
32307253 -1.4837097e+08 -2520100.9
31506637 -1.7347439e+08 -1997198.6
14136554 -1.9235156e+08 -2153154.7
8338983.1 -88428135 -4732108
30853728 -1.0927271e+08 -2605529.1
47826965 -1.3040776e+08 -2124617.2
61734940 -1.5968883e+08 -1903540.6
36101460 -2.2546221e+08 -1969165.6
-7984654.2 -85020492 5720091.2
-28983795 -1.0371294e+08 3403906.7
-44961176 -1.2374165e+08 2553520.1
-58636146 -1.51033e+08 2190583.9
-35199531 -2.1133755e+08 1963358.7
-4233279.9 -1.1172565e+08 4514810.5
-19678249 -1.242465e+08 3296242
-30359465 -1.414658e+08 2586928.3
-30122667 -1.6507874e+08 2317582.9
-14485745 -1.8139353e+08 2765680.1
-1825134.6 -1.3026459e+08 4022524.8
-12243956 -1.3930133e+08 2854274.4
-17410453 -1.5165479e+08 2282849.7
-15166504 -1.6426579e+08 2215899.5
-6954837.4 -1.7010594e+08 2657621.4
-372721.95 -1.430717e+08 3378097.3
-6554514.9 -1.4873369e+08 2426005.1
-9242207.2 -1.5619175e+08 1991594
-7876500.4 -1.6270607e+08 1988043.8
-3837855.7 -1.6546949e+08 2370429.4
636037.2 -1.5111617e+08 2882945.1
-2976831.4 -1.5438778e+08 2089703.2
-4660418.1 -1.5860101e+08 1736771.6
-4186708 -1.6211895e+08 1747181.6
-2300890.1 -1.6362615e+08 2075741.1
1180731 -1.5613563e+08 2493805
-970199.82 -1.5791006e+08 1814181.2
-2191530.8 -1.6024561e+08 1514633.9
-2256064.5 -1.6221281e+08 1527799.9
-1478963.7 -1.6310466e+08 1813616.1
1397867.2 -1.5934461e+08 2169546
68570.433 -1.6025803e+08 1580895.9
-890640.48 -1.6154517e+08 1322469
-1225892.6 -1.6267252e+08 1335713.7
-1016472.7 -1.6322433e+08 1586836.4
1423279.4 -1.614962e+08 1889895.5
557138.35 -1.6193723e+08 1379126
-229778.6 -1.6263695e+08 1154114.8
-674673.79 -1.632931e+08 1167056.4
-745531.83 -1.6364441e+08 1390295.2
1342588.8 -1.6302496e+08 1641475.9
745614.84 -1.6321003e+08 1198789.7
88640.549 -1.6357754e+08 1005017.5
-383871.68 -1.6395922e+08 1019282.4
-583522.89 -1.6418588e+08 1218195.9
1211611.5 -1.6417307e+08 1416570.2
775357.11 -1.6421681e+08 1036453.6
219972.47 -1.6439321e+08 871307.64
-233791.34 -1.6461131e+08 886912.49
-481504.47 -1.6475527e+08 1064538.4
1055016.9 -1.6507053e+08 1208100
721180.03 -1.6503731e+08 886487.31
250666.04 -1.6509881e+08 748081.51
-164079.73 -1.6521465e+08 765702.75
-416079.51 -1.6530336e+08 925198.47
888047.26 -1.6578936e+08 1012083.7
623315.7 -1.6571358e+08 745945.98
226018.43 -1.6570494e+08 633582.27
-139404.19 -1.6575261e+08 653898.1
-372578.48 -1.6580429e+08 797075.44
716359.75 -1.6637032e+08 825631.84
501625.82 -1.6627053e+08 612490.47
171824.55 -1.6621736e+08 525380.38
-140248.89 -1.6621958e+08 549085.04
-343383.87 -1.6624457e+08 677232.14
544689.81 -1.6683664e+08 646061.71
369111.46 -1.6672385e+08 484544.78
100626.84 -1.6663987e+08 421896.73
-155744.96 -1.6661274e+08 449242.75
-322148.58 -1.6661813e+08 563761.65
372365.75 -1.672015e+08 471279.03
230755.66 -1.67081e+08 359858.49
21997.722 -1.6697682e+08 321718.76
-179462.32 -1.6693054e+08 353101.13
-306696.41 -1.6692292e+08 454893.52
201874.9 -1.6747181e+08 299156.2
91241.293 -1.6734586e+08 237428.69
-61110.007 -1.6723097e+08 223494.27
-208001.05 -1.6717348e+08 259255.17
-294761.89 -1.6715828e+08 349044.21
31988.259 -1.6764916e+08 128437.83
-48551.254 -1.6752195e+08 116146.08
-145421.37 -1.6740395e+08 126414.27
-238457.33 -1.6734201e+08 166798.01
-284962.76 -1.6732488e+08 245074.56
-138508.79 -1.6773473e+08 -42079.276
-187750.27 -1.6760835e+08 -5066.1419
-227692.69 -1.6749652e+08 29709.603
-268006.48 -1.6743776e+08 74868.042
-276019.91 -1.6742398e+08 141905.05
-307030.04 -1.6772441e+08 -214390.6
-321631.91 -1.6760389e+08 -127067.22
-305055.93 -1.6750839e+08 -67837.541
-293441.17 -1.6746241e+08 -17759.815
-265934.8 -1.6745824e+08 38163.097
-474083.21 -1.6760789e+08 -390324.73
-445102.52 -1.6750394e+08 -251906.41
-368002.35 -1.6743794e+08 -167400.85
-308661.45 -1.6741999e+08 -112057.23
-253033.35 -1.6743204e+08 -67506.268
-634554.78 -1.6736473e+08 -572186.89
-544744.82 -1.6729579e+08 -380814.1
-403878.91 -1.6728444e+08 -270206.34
-303124.43 -1.6731624e+08 -209612.01
-231655.7 -1.6735423e+08 -176410.48
-782074.12 -1.6695655e+08 -762300.81
-599689.96 -1.669576e+08 -515653.02
-386284.2 -1.6704581e+08 -378153.38
-257541.66 -1.671605e+08 -312167.89
-195167.96 -1.6724201e+08 -290617.18
-899959.79 -1.6631254e+08 -963906.06
-567351.94 -1.6645023e+08 -658677.38
-268164.87 -1.6671598e+08 -492277.14
-136329.98 -1.669746e+08 -420551.11
-130167.39 -1.6712655e+08 -411969.21
-960747.42 -1.653008e+08 -1183087.3
-367706.41 -1.6569586e+08 -814740.57
41360.778 -1.6628596e+08 -616587.02
122370.28 -1.6680112e+08 -537783.67
-14828.85 -1.6706535e+08 -542843.13
-902936.19 -1.6367009e+08 -1426207.6
151662.99 -1.6455341e+08 -986115.66
707568.99 -1.6573724e+08 -753786.24
642881.86 -1.6671211e+08 -667765.53
198167.33 -1.6716582e+08 -686874.16
-630387.8 -1.609621e+08 -1704827.9
1263086.8 -1.6275308e+08 -1181693.1
2049683.1 -1.6502352e+08 -907379.45
1655104.2 -1.6684432e+08 -811425.74
589945.58 -1.6763205e+08 -846997.07
11441.852 -1.5637219e+08 -2036267.1
3426336.1 -1.5976534e+08 -1410726.4
4640598.2 -1.640191e+08 -1083344
3607466.6 -1.6744075e+08 -972385.97
1328502.7 -1.6885244e+08 -1025717.5
1184916.3 -1.4859345e+08 -2456001.2
7314705.9 -1.5456824e+08 -1689256.5
9516175.3 -1.6230796e+08 -1286326.8
7423575.2 -1.6888091e+08 -1150042.9
2777016 -1.7160515e+08 -1222665.3
2889793.6 -1.3576582e+08 -2993386.7
13544606 -1.4537796e+08 -2042117.7
18331945 -1.5844108e+08 -1522937
15092993 -1.7160639e+08 -1331558.1
5803995.4 -1.7754815e+08 -1423248.1
5650333.9 -1.1681131e+08 -3297716.8
21739698 -1.3021363e+08 -2376916.5
32466125 -1.4854357e+08 -1764872.7
31235918 -1.7383098e+08 -1440718.8
13493213 -1.9104509e+08 -1580810.2
9879176.5 -89966947 -3901929.7
31863843 -1.0919232e+08 -2346608.1
48476361 -1.3056598e+08 -1661392.1
62496797 -1.5989633e+08 -1366263.8
36159870 -2.2480586e+08 -1253325.7
-8762241.9 -84702942 2637272.7
-29954272 -1.0371918e+08 2087445.4
-45481936 -1.238612e+08 1547257
-58912524 -1.5125023e+08 1277508.9
-35264748 -2.120082e+08 1220928.9
-4780115.6 -1.108493e+08 2519761.1
-20336388 -1.241221e+08 1989907.6
-30702300 -1.4137921e+08 1563843.8
-30143834 -1.6509555e+08 1400803.5
-14333784 -1.8184774e+08 1446641.9
-2319775.8 -1.295163e+08 2235772.3
-12777579 -1.390563e+08 1806040.3
-17590567 -1.5145859e+08 1468481.2
-15015870 -1.6412403e+08 1391304
-6709504.7 -1.7020363e+08 1464073.9
-795634.75 -1.4239769e+08 1945181.8
-6977613.3 -1.484977e+08 1579168.1
-9345540.5 -1.5598717e+08 1317229.3
-7698178.9 -1.6249897e+08 1283067.9
-3596068.6 -1.65438e+08 1355071.2
268010.63 -1.5057829e+08 1673230.5
-3332113.6 -1.5418853e+08 1370574.8
-4735209.6 -1.5841188e+08 1160318.1
-4021059.2 -1.6191353e+08 1142668.6
-2080860.7 -1.6355492e+08 1209713.1
858533.84 -1.5570304e+08 1446032.6
-1277741.9 -1.577393e+08 1191562
-2254931.7 -1.6007811e+08 1015490.9
-2111240.2 -1.6202832e+08 1004577.1
-1283558 -1.6302433e+08 1066483.8
1114649.8 -1.5898946e+08 1255294
-201482.93 -1.6010889e+08 1037874.4
-947579.46 -1.6139836e+08 887041.65
-1100811.5 -1.6251124e+08 879647.44
-844210.33 -1.6314348e+08 936861.95
1174716.2 -1.6120011e+08 1091050
319533.56 -1.6180383e+08 904036.98
-281527.16 -1.6250736e+08 773953.57
-566299.94 -1.6315244e+08 769133.9
-593638.17 -1.6356497e+08 821975.82
1125395.6 -1.6277509e+08 946036.93
537677.72 -1.630882e+08 785385.63
42868.409 -1.6346204e+08 673584.53
-289238.74 -1.6383543e+08 671258.44
-449852.94 -1.6410746e+08 720045.31
1023733.2 -1.6395985e+08 815193.44
595468.24 -1.6410347e+08 678230.64
180655.62 -1.6428836e+08 583304.57
-150482.19 -1.6450044e+08 583501.85
-364012.73 -1.6467691e+08 628508.36
894966.19 -1.6488614e+08 694800.44
568274.75 -1.6492982e+08 579743.47
218310.43 -1.6500195e+08 500670.48
-90119.583 -1.6511378e+08 503557.8
-313080.89 -1.6522456e+08 545191.06
754558.54 -1.6562781e+08 582167.73
496569.07 -1.6561041e+08 487727.91
201188.05 -1.6561429e+08 423869.13
-73252.822 -1.6565968e+08 429668.89
-282768.27 -1.657247e+08 468142.25
608485.06 -1.6622643e+08 475260.84
400343.45 -1.6617056e+08 400548.59
154865.35 -1.6613132e+08 351478.35
-80754.213 -1.6613261e+08 360355.3
-265781.69 -1.6616382e+08 395987.45
461760.23 -1.6670577e+08 372621.49
292825.09 -1.6662606e+08 316931.28
91779.983 -1.6655714e+08 282321.57
-102026.65 -1.6653014e+08 294463.65
-255954.91 -1.6653609e+08 327476.89
313843.62 -1.6707946e+08 272838.65
179153.6 -1.6698455e+08 235751.77
21553.766 -1.6689627e+08 215416.82
-130815.9 -1.6685105e+08 231011.57
-251294.43 -1.6683969e+08 261654.78
167539.35 -1.673547e+08 174810.55
64213.041 -1.6725024e+08 156096.09
-52987.331 -1.671517e+08 149977.07
-163990.73 -1.6709601e+08 169127.32
-249787.91 -1.6707403e+08 197499.05
21718.533 -1.6753333e+08 77645.698
-51048.413 -1.6742672e+08 77219.284
-128589.95 -1.6732528e+08 85322.586
-198773.73 -1.6726558e+08 108153.8
-250176.58 -1.6723961e+08 134381.14
-124733.46 -1.6761639e+08 -19512.215
-165687.29 -1.6751307e+08 -1599.7824
-202023.92 -1.6741763e+08 20801.892
-232451.44 -1.6736138e+08 47465.308
-251295.07 -1.6733787e+08 71703.106
-268921.88 -1.6759964e+08 -117681.2
-274774.27 -1.6750783e+08 -81175.6
-270520.74 -1.674283e+08 -44277.143
-262044.89 -1.6738505e+08 -13692.046
-251376.67 -1.6737146e+08 8557.5812
-411230.98 -1.6747244e+08 -218093.9
-373044.15 -1.6740629e+08 -162485.67
-324469.76 -1.6735559e+08 -110724.12
-281547.32 -1.6734041e+08 -76102.166
-248886.24 -1.6734454e+08 -55786.106
-546279.04 -1.6721401e+08 -321958.57
-446826.9 -1.6719573e+08 -246561.4
-351245.32 -1.6719861e+08 -179469.57
-280572.62 -1.6723297e+08 -140631.12
-238284.66 -1.6726577e+08 -122258.13
-667394.28 -1.6678539e+08 -430941.59
-475087.22 -1.66854e+08 -334703.1
-324543.92 -1.6695522e+08 -251561.44
-240038.44 -1.6707223e+08 -208319.16
-213173.21 -1.6715247e+08 -191780.27
-757695.54 -1.6611417e+08 -547261.84
-414945.64 -1.6634101e+08 -428639.35
-197075.41 -1.6661863e+08 -328330.78
-124531.86 -1.6687942e+08 -280347.49
-160410.24 -1.6703575e+08 -265674.78
-789190.14 -1.6506704e+08 -674004.19
-185777.97 -1.6557859e+08 -530668.69
122288.97 -1.6617921e+08 -411637.61
127720.34 -1.6669633e+08 -358299.21
-58381.256 -1.6697266e+08 -345305.36
-699229.64 -1.6338993e+08 -815444.98
365956.99 -1.6442466e+08 -643825.24
798710.75 -1.6561874e+08 -503477.49
640945.11 -1.6659534e+08 -443893.7
140314.38 -1.6707103e+08 -432316.66
-390888.43 -1.6061972e+08 -977803.63
1514455.2 -1.6260759e+08 -772196.61
2153394.4 -1.6488992e+08 -606232.53
1645374.5 -1.6671363e+08 -538561.59
516287.83 -1.6753617e+08 -527926.77
292325.54 -1.5594395e+08 -1169364.2
3723282.1 -1.5959693e+08 -920818.99
4761430.1 -1.6386771e+08 -721822.47
3590901.7 -1.672959e+08 -642545.49
1238545 -1.6875913e+08 -632122.53
1513959.2 -1.4805682e+08 -1394952.7
7672235.2 -1.5437064e+08 -1093291.7
9665405.7 -1.6214022e+08 -849252.94
7405686 -1.6872906e+08 -751675.19
2672331.3 -1.7152713e+08 -740441.39
3279450.3 -1.3520181e+08 -1620691.7
13994851 -1.4518444e+08 -1276272.8
18538887 -1.5827681e+08 -976389.78
15092063 -1.7148481e+08 -848443.94
5690167.5 -1.7751957e+08 -836453.69
6062563 -1.1624167e+08 -1805418.7
22267881 -1.3015202e+08 -1408545.7
32784385 -1.484814e+08 -1059014.8
31325148 -1.7380662e+08 -890642.78
13413876 -1.9119196e+08 -873426.31
10432136 -89644265 -1888619.4
32596740 -1.0916303e+08 -1480500.2
48899068 -1.3064257e+08 -1061907.4
62675330 -1.6000614e+08 -851417.69
36163343 -2.2506566e+08 -798076.27
-9009623.3 -84692357 830188.66
-30298703 -1.0373346e+08 673960.51
-45748516 -1.2391001e+08 519487.88
-59066272 -1.5135867e+08 425895.42
-35302930 -2.1220509e+08 396911.1
-4987211.8 -1.107508e+08 797225.92
-20604525 -1.2404041e+08 657265.49
-30880240 -1.4135803e+08 526583.38
-30198094 -1.6513854e+08 464651.9
-14301301 -1.8190715e+08 468462.01
-2494082.1 -1.2936494e+08 725258.58
-12978241 -1.3893271e+08 603358.16
-17696091 -1.5138474e+08 501779.7
-15004515 -1.6408919e+08 465484.96
-6643605 -1.7016648e+08 476301.96
-946550.09 -1.4224315e+08 636907.65
-7134090.9 -1.4836451e+08 535445.28
-9407953.9 -1.5589037e+08 456488.71
-7659542.6 -1.6241973e+08 434903.83
-3521098.8 -1.6535219e+08 447312.47
137202.65 -1.5043863e+08 552092.96
-3459704.2 -1.5406765e+08 467641.06
-4778110.7 -1.5831468e+08 404685.44
-3977449.1 -1.6182302e+08 390547.77
-2008273.1 -1.6345851e+08 402921.82
744209.59 -1.5558458e+08 477834.83
-1386467.1 -1.5763459e+08 407115.4
-2289485.8 -1.5998929e+08 355016.07
-2070650.7 -1.6194208e+08 344677.68
-1217187.6 -1.6293304e+08 356758.83
1014181.1 -1.5888805e+08 414668.8
-296415.09 -1.6001816e+08 354568.57
-977800.96 -1.6131963e+08 310308.66
-1065020.3 -1.6243372e+08 302279.43
-784782.52 -1.6306148e+08 313955.08
1086447.7 -1.6111131e+08 360161.83
236114.16 -1.6172421e+08 308670.81
-308467.83 -1.6243772e+08 270731.16
-535101.7 -1.6308367e+08 264433.52
-540895.16 -1.6349209e+08 275589.97
1048277.3 -1.6269555e+08 312088.55
464715.59 -1.630171e+08 268008
19117.288 -1.6339983e+08 235564.33
-261911.83 -1.6377407e+08 230743.62
-403237.31 -1.6404231e+08 241359.68
957021.06 -1.6388706e+08 268780.01
532406.86 -1.6403884e+08 231332.2
160322.67 -1.6423196e+08 203912.06
-126310.01 -1.6444494e+08 200501.5
-323007.05 -1.6461792e+08 210555.93
838139.33 -1.6481828e+08 229036.94
514786.69 -1.6487008e+08 197696.24
201622.53 -1.6494995e+08 174977.34
-68411.428 -1.6506285e+08 172933.66
-277111.89 -1.6517043e+08 182452.34
707191.39 -1.655636e+08 191930
452425.72 -1.6555433e+08 166308.47
188384.78 -1.6556562e+08 148106.59
-53541.104 -1.6561223e+08 147442.04
-251469.86 -1.6567429e+08 156443.11
570307.48 -1.6616495e+08 156772.8
365394.54 -1.6611718e+08 136618.24
146079.79 -1.6608514e+08 122795.83
-62595.346 -1.6608779e+08 123530.91
-238758.25 -1.6611624e+08 132085.61
432533.64 -1.6664621e+08 123035.65
266944.36 -1.6657465e+08 108165.18
87145.907 -1.6651276e+08 98629.263
-85165.125 -1.6648722e+08 100798.17
-232995.8 -1.6649065e+08 108937.64
293381.17 -1.6702116e+08 90280.963
162245.92 -1.6693443e+08 80562.574
21185.405 -1.6685311e+08 75261.891
-114980.64 -1.6680944e+08 78891.211
-232162.76 -1.6679575e+08 86653.22
155760.54 -1.6729714e+08 58120.164
56243.335 -1.6720085e+08 53508.774
-49012.823 -1.6710929e+08 52419.363
-149029.22 -1.6705519e+08 57541.523
-234370.29 -1.6703106e+08 64956.03
18585.968 -1.6747602e+08 26252.438
-50077.904 -1.6737761e+08 26726.877
-120203.74 -1.6728317e+08 29853.76
-184577.06 -1.6722516e+08 36501.227
-238396.43 -1.6719713e+08 43598.129
-119213.96 -1.6755885e+08 -5610.4522
-155734.75 -1.6746373e+08 -51.469924
-189161.21 -1.6737537e+08 7327.3548
-218948.08 -1.6732089e+08 15533.128
-243109.21 -1.672954e+08 22341.51
-254639.53 -1.6754128e+08 -37828.254
-255732.75 -1.6745766e+08 -27092.348
-253140.93 -1.6738542e+08 -15400.37
-249268.58 -1.6734398e+08 -5591.126
-246860.97 -1.6732847e+08 947.23781
-388023.51 -1.6741258e+08 -70775.799
-344763.57 -1.6735468e+08 -54730.013
-302526.02 -1.6731153e+08 -38612.906