# vtk DataFile Version 2.0
Mesh3D
ASCII

DATASET UNSTRUCTURED_GRID
POINTS 92302 float
7.875  -3.26193  0.75
7.675  -3.17909  0.75
7.675  -2.97399  0.75
7.875  -3.05148  0.75
7.875  -3.26193  0.5625
7.675  -3.17909  0.5625
7.675  -2.97399  0.5625
7.875  -3.05148  0.5625
7.775  -3.22051  0.75
7.675  -3.07654  0.75
7.775  -3.01274  0.75
7.875  -3.15671  0.75
7.875  -3.26193  0.65625
7.675  -3.17909  0.65625
7.675  -2.97399  0.65625
7.875  -3.05148  0.65625
7.775  -3.22051  0.5625
7.675  -3.07654  0.5625
7.775  -3.01274  0.5625
7.875  -3.15671  0.5625
7.775  -3.11662  0.65625
7.775  -3.11662  0.75
7.775  -3.11662  0.5625
7.875  -3.15671  0.65625
7.675  -3.07654  0.65625
7.775  -3.22051  0.65625
7.775  -3.01274  0.65625
7.475  -3.09625  0.75
7.475  -2.89649  0.75
7.475  -3.09625  0.5625
7.475  -2.89649  0.5625
7.575  -3.13767  0.75
7.475  -2.99637  0.75
7.575  -2.93524  0.75
7.475  -3.09625  0.65625
7.475  -2.89649  0.65625
7.575  -3.13767  0.5625
7.475  -2.99637  0.5625
7.575  -2.93524  0.5625
7.575  -3.03645  0.65625
7.575  -3.03645  0.75
7.575  -3.03645  0.5625
7.475  -2.99637  0.65625
7.575  -3.13767  0.65625
7.575  -2.93524  0.65625
7.275  -3.0134  0.75
7.275  -2.81899  0.75
7.275  -3.0134  0.5625
7.275  -2.81899  0.5625
7.375  -3.05483  0.75
7.275  -2.9162  0.75
7.375  -2.85774  0.75
7.275  -3.0134  0.65625
7.275  -2.81899  0.65625
7.375  -3.05483  0.5625
7.275  -2.9162  0.5625
7.375  -2.85774  0.5625
7.375  -2.95628  0.65625
7.375  -2.95628  0.75
7.375  -2.95628  0.5625
7.275  -2.9162  0.65625
7.375  -3.05483  0.65625
7.375  -2.85774  0.65625
7.075  -2.93056  0.75
7.075  -2.74149  0.75
7.075  -2.93056  0.5625
7.075  -2.74149  0.5625
7.175  -2.97198  0.75
7.075  -2.83603  0.75
7.175  -2.78024  0.75
7.075  -2.93056  0.65625
7.075  -2.74149  0.65625
7.175  -2.97198  0.5625
7.075  -2.83603  0.5625
7.175  -2.78024  0.5625
7.175  -2.87611  0.65625
7.175  -2.87611  0.75
7.175  -2.87611  0.5625
7.075  -2.83603  0.65625
7.175  -2.97198  0.65625
7.175  -2.78024  0.65625
6.875  -2.84772  0.75
6.875  -2.66399  0.75
6.875  -2.84772  0.5625
6.875  -2.66399  0.5625
6.975  -2.88914  0.75
6.875  -2.75586  0.75
6.975  -2.70274  0.75
6.875  -2.84772  0.65625
6.875  -2.66399  0.65625
6.975  -2.88914  0.5625
6.875  -2.75586  0.5625
6.975  -2.70274  0.5625
6.975  -2.79594  0.65625
6.975  -2.79594  0.75
6.975  -2.79594  0.5625
6.875  -2.75586  0.65625
6.975  -2.88914  0.65625
6.975  -2.70274  0.65625
7.675  -2.76888  0.75
7.875  -2.84104  0.75
7.675  -2.76888  0.5625
7.875  -2.84104  0.5625
7.675  -2.87144  0.75
7.775  -2.80496  0.75
7.875  -2.94626  0.75
7.675  -2.76888  0.65625
7.875  -2.84104  0.65625
7.675  -2.87144  0.5625
7.775  -2.80496  0.5625
7.875  -2.94626  0.5625
7.775  -2.90885  0.65625
7.775  -2.90885  0.75
7.775  -2.90885  0.5625
7.875  -2.94626  0.65625
7.675  -2.87144  0.65625
7.775  -2.80496  0.65625
7.475  -2.69673  0.75
7.475  -2.69673  0.5625
7.475  -2.79661  0.75
7.575  -2.73281  0.75
7.475  -2.69673  0.65625
7.475  -2.79661  0.5625
7.575  -2.73281  0.5625
7.575  -2.83402  0.65625
7.575  -2.83402  0.75
7.575  -2.83402  0.5625
7.475  -2.79661  0.65625
7.575  -2.73281  0.65625
7.275  -2.62458  0.75
7.275  -2.62458  0.5625
7.275  -2.72178  0.75
7.375  -2.66065  0.75
7.275  -2.62458  0.65625
7.275  -2.72178  0.5625
7.375  -2.66065  0.5625
7.375  -2.7592  0.65625
7.375  -2.7592  0.75
7.375  -2.7592  0.5625
7.275  -2.72178  0.65625
7.375  -2.66065  0.65625
7.075  -2.55242  0.75
7.075  -2.55242  0.5625
7.075  -2.64696  0.75
7.175  -2.5885  0.75
7.075  -2.55242  0.65625
7.075  -2.64696  0.5625
7.175  -2.5885  0.5625
7.175  -2.68437  0.65625
7.175  -2.68437  0.75
7.175  -2.68437  0.5625
7.075  -2.64696  0.65625
7.175  -2.5885  0.65625
6.875  -2.48027  0.75
6.875  -2.48027  0.5625
6.875  -2.57213  0.75
6.975  -2.51635  0.75
6.875  -2.48027  0.65625
6.875  -2.57213  0.5625
6.975  -2.51635  0.5625
6.975  -2.60955  0.65625
6.975  -2.60955  0.75
6.975  -2.60955  0.5625
6.875  -2.57213  0.65625
6.975  -2.51635  0.65625
7.675  -2.56378  0.75
7.875  -2.63059  0.75
7.675  -2.56378  0.5625
7.875  -2.63059  0.5625
7.675  -2.66633  0.75
7.775  -2.59719  0.75
7.875  -2.73581  0.75
7.675  -2.56378  0.65625
7.875  -2.63059  0.65625
7.675  -2.66633  0.5625
7.775  -2.59719  0.5625
7.875  -2.73581  0.5625
7.775  -2.70107  0.65625
7.775  -2.70107  0.75
7.775  -2.70107  0.5625
7.875  -2.73581  0.65625
7.675  -2.66633  0.65625
7.775  -2.59719  0.65625
7.475  -2.49697  0.75
7.475  -2.49697  0.5625
7.475  -2.59685  0.75
7.575  -2.53038  0.75
7.475  -2.49697  0.65625
7.475  -2.59685  0.5625
7.575  -2.53038  0.5625
7.575  -2.63159  0.65625
7.575  -2.63159  0.75
7.575  -2.63159  0.5625
7.475  -2.59685  0.65625
7.575  -2.53038  0.65625
7.275  -2.43016  0.75
7.275  -2.43016  0.5625
7.275  -2.52737  0.75
7.375  -2.46357  0.75
7.275  -2.43016  0.65625
7.275  -2.52737  0.5625
7.375  -2.46357  0.5625
7.375  -2.56211  0.65625
7.375  -2.56211  0.75
7.375  -2.56211  0.5625
7.275  -2.52737  0.65625
7.375  -2.46357  0.65625
7.075  -2.36336  0.75
7.075  -2.36336  0.5625
7.075  -2.45789  0.75
7.175  -2.39676  0.75
7.075  -2.36336  0.65625
7.075  -2.45789  0.5625
7.175  -2.39676  0.5625
7.175  -2.49263  0.65625
7.175  -2.49263  0.75
7.175  -2.49263  0.5625
7.075  -2.45789  0.65625
7.175  -2.39676  0.65625
6.875  -2.29655  0.75
6.875  -2.29655  0.5625
6.875  -2.38841  0.75
6.975  -2.32995  0.75
6.875  -2.29655  0.65625
6.875  -2.38841  0.5625
6.975  -2.32995  0.5625
6.975  -2.42315  0.65625
6.975  -2.42315  0.75
6.975  -2.42315  0.5625
6.875  -2.38841  0.65625
6.975  -2.32995  0.65625
7.675  -2.35868  0.75
7.875  -2.42014  0.75
7.675  -2.35868  0.5625
7.875  -2.42014  0.5625
7.675  -2.46123  0.75
7.775  -2.38941  0.75
7.875  -2.52537  0.75
7.675  -2.35868  0.65625
7.875  -2.42014  0.65625
7.675  -2.46123  0.5625
7.775  -2.38941  0.5625
7.875  -2.52537  0.5625
7.775  -2.4933  0.65625
7.775  -2.4933  0.75
7.775  -2.4933  0.5625
7.875  -2.52537  0.65625
7.675  -2.46123  0.65625
7.775  -2.38941  0.65625
7.475  -2.29722  0.75
7.475  -2.29722  0.5625
7.475  -2.39709  0.75
7.575  -2.32795  0.75
7.475  -2.29722  0.65625
7.475  -2.39709  0.5625
7.575  -2.32795  0.5625
7.575  -2.42916  0.65625
7.575  -2.42916  0.75
7.575  -2.42916  0.5625
7.475  -2.39709  0.65625
7.575  -2.32795  0.65625
7.275  -2.23575  0.75
7.275  -2.23575  0.5625
7.275  -2.33296  0.75
7.375  -2.26648  0.75
7.275  -2.23575  0.65625
7.275  -2.33296  0.5625
7.375  -2.26648  0.5625
7.375  -2.36503  0.65625
7.375  -2.36503  0.75
7.375  -2.36503  0.5625
7.275  -2.33296  0.65625
7.375  -2.26648  0.65625
7.075  -2.17429  0.75
7.075  -2.17429  0.5625
7.075  -2.26882  0.75
7.175  -2.20502  0.75
7.075  -2.17429  0.65625
7.075  -2.26882  0.5625
7.175  -2.20502  0.5625
7.175  -2.30089  0.65625
7.175  -2.30089  0.75
7.175  -2.30089  0.5625
7.075  -2.26882  0.65625
7.175  -2.20502  0.65625
6.875  -2.11282  0.75
6.875  -2.11282  0.5625
6.875  -2.20469  0.75
6.975  -2.14356  0.75
6.875  -2.11282  0.65625
6.875  -2.20469  0.5625
6.975  -2.14356  0.5625
6.975  -2.23675  0.65625
6.975  -2.23675  0.75
6.975  -2.23675  0.5625
6.875  -2.20469  0.65625
6.975  -2.14356  0.65625
7.675  -2.15358  0.75
7.875  -2.2097  0.75
7.675  -2.15358  0.5625
7.875  -2.2097  0.5625
7.675  -2.25613  0.75
7.775  -2.18164  0.75
7.875  -2.31492  0.75
7.675  -2.15358  0.65625
7.875  -2.2097  0.65625
7.675  -2.25613  0.5625
7.775  -2.18164  0.5625
7.875  -2.31492  0.5625
7.775  -2.28552  0.65625
7.775  -2.28552  0.75
7.775  -2.28552  0.5625
7.875  -2.31492  0.65625
7.675  -2.25613  0.65625
7.775  -2.18164  0.65625
7.475  -2.09746  0.75
7.475  -2.09746  0.5625
7.475  -2.19734  0.75
7.575  -2.12552  0.75
7.475  -2.09746  0.65625
7.475  -2.19734  0.5625
7.575  -2.12552  0.5625
7.575  -2.22673  0.65625
7.575  -2.22673  0.75
7.575  -2.22673  0.5625
7.475  -2.19734  0.65625
7.575  -2.12552  0.65625
7.275  -2.04134  0.75
7.275  -2.04134  0.5625
7.275  -2.13854  0.75
7.375  -2.0694  0.75
7.275  -2.04134  0.65625
7.275  -2.13854  0.5625
7.375  -2.0694  0.5625
7.375  -2.16794  0.65625
7.375  -2.16794  0.75
7.375  -2.16794  0.5625
7.275  -2.13854  0.65625
7.375  -2.0694  0.65625
7.075  -1.98522  0.75
7.075  -1.98522  0.5625
7.075  -2.07975  0.75
7.175  -2.01328  0.75
7.075  -1.98522  0.65625
7.075  -2.07975  0.5625
7.175  -2.01328  0.5625
7.175  -2.10915  0.65625
7.175  -2.10915  0.75
7.175  -2.10915  0.5625
7.075  -2.07975  0.65625
7.175  -2.01328  0.65625
6.875  -1.9291  0.75
6.875  -1.9291  0.5625
6.875  -2.02096  0.75
6.975  -1.95716  0.75
6.875  -1.9291  0.65625
6.875  -2.02096  0.5625
6.975  -1.95716  0.5625
6.975  -2.05036  0.65625
6.975  -2.05036  0.75
6.975  -2.05036  0.5625
6.875  -2.02096  0.65625
6.975  -1.95716  0.65625
7.675  -1.94847  0.75
7.875  -1.99925  0.75
7.675  -1.94847  0.5625
7.875  -1.99925  0.5625
7.675  -2.05103  0.75
7.775  -1.97386  0.75
7.875  -2.10447  0.75
7.675  -1.94847  0.65625
7.875  -1.99925  0.65625
7.675  -2.05103  0.5625
7.775  -1.97386  0.5625
7.875  -2.10447  0.5625
7.775  -2.07775  0.65625
7.775  -2.07775  0.75
7.775  -2.07775  0.5625
7.875  -2.10447  0.65625
7.675  -2.05103  0.65625
7.775  -1.97386  0.65625
7.475  -1.8977  0.75
7.475  -1.8977  0.5625
7.475  -1.99758  0.75
7.575  -1.92309  0.75
7.475  -1.8977  0.65625
7.475  -1.99758  0.5625
7.575  -1.92309  0.5625
7.575  -2.0243  0.65625
7.575  -2.0243  0.75
7.575  -2.0243  0.5625
7.475  -1.99758  0.65625
7.575  -1.92309  0.65625
7.275  -1.84692  0.75
7.275  -1.84692  0.5625
7.275  -1.94413  0.75
7.375  -1.87231  0.75
7.275  -1.84692  0.65625
7.275  -1.94413  0.5625
7.375  -1.87231  0.5625
7.375  -1.97085  0.65625
7.375  -1.97085  0.75
7.375  -1.97085  0.5625
7.275  -1.94413  0.65625
7.375  -1.87231  0.65625
7.075  -1.79615  0.75
7.075  -1.79615  0.5625
7.075  -1.89068  0.75
7.175  -1.82154  0.75
7.075  -1.79615  0.65625
7.075  -1.89068  0.5625
7.175  -1.82154  0.5625
7.175  -1.91741  0.65625
7.175  -1.91741  0.75
7.175  -1.91741  0.5625
7.075  -1.89068  0.65625
7.175  -1.82154  0.65625
6.875  -1.74538  0.75
6.875  -1.74538  0.5625
6.875  -1.83724  0.75
[...]
CELL_DATA 9520
VECTORS current_real float
887.00068 4843.3184 105.6601
2120.1733 5967.9598 41.558373
2987.2996 7214.1577 28.117447
3712.3364 8925.6036 24.662028
2101.7193 12695.121 29.225136
551.1418 6327.2458 24.349862
1465.3791 7110.2572 -1.8339389
2041.5747 8171.1331 1.4412704
1898.2496 9638.3929 19.579746
775.06668 10625.284 40.666857
389.67419 7356.0744 14.015408
988.72365 7911.0766 17.274595
1190.8088 8664.7306 26.726285
919.95711 9424.5413 39.269658
294.32042 9714.0381 68.811974
272.50921 8048.1323 52.597207
595.86545 8357.7012 41.280371
650.51603 8796.6476 44.676153
447.28358 9170.3532 55.114074
93.619731 9254.5808 91.876127
197.57038 8427.4573 78.88455
352.54863 8567.3514 57.483575
347.13083 8801.4772 58.336903
203.99876 8990.0366 68.756206
-11.521744 8987.9895 112.31123
156.12416 8610.0254 99.455615
213.85991 8645.107 70.760369
180.70884 8763.241 70.0998
72.656334 8858.4008 81.01158
-72.944514 8815.4046 130.79516
137.91708 8674.8027 117.28978
139.37518 8651.3013 82.481123
89.782422 8706.4665 80.729941
-1.5806445 8752.9336 92.327232
-112.52004 8689.9013 147.9117
133.49415 8670.6882 133.61698
101.30903 8616.9242 93.268681
39.953264 8638.5055 90.696841
-45.615558 8659.2676 103.05687
-140.49784 8587.7317 164.04833
136.92144 8625.3274 149.13891
83.272555 8557.7548 103.60461
12.258994 8561.8931 100.22515
-73.296459 8569.1307 113.3053
-162.0016 8496.2038 179.49698
144.4786 8553.6919 164.20791
76.002356 8482.0083 113.59066
-3.3747571 8477.4411 109.46208
-92.177892 8477.9116 123.28216
-179.99318 8408.4942 194.51568
154.44627 8463.5962 179.13475
74.608086 8393.9695 123.4671
-12.480385 8385.5023 118.60595
-106.08446 8383.0295 133.1457
-195.91323 8320.8348 209.28136
165.77222 8359.238 194.08551
76.472229 8295.8465 133.33177
-17.90122 8286.2793 127.70708
-117.22707 8283.0808 142.94197
-210.69056 8231.0477 223.91949
178.04038 8242.7356 209.1772
80.249635 8188.8159 143.27063
-21.295692 8179.7432 136.85941
-126.85914 8177.2371 152.75881
-224.84821 8137.8892 238.56665
190.96053 8115.1259 224.54282
85.120766 8073.4214 153.34353
-23.508516 8065.8243 146.1257
-135.65306 8064.982 162.6822
-238.73702 8040.65 253.31326
204.51572 7976.8191 240.28265
90.753967 7949.8491 163.65397
-25.061061 7944.4364 155.56636
-144.01804 7945.9555 172.76361
-252.54285 7938.889 268.2447
218.63946 7827.8739 256.52292
96.903436 7818.1135 174.24831
-26.170468 7815.4522 165.24781
-152.15102 7819.891 183.06307
-266.39868 7832.2967 283.43903
233.42367 7668.0864 273.35998
103.54307 7678.1252 185.19488
-26.971778 7678.7055 175.21854
-160.19535 7686.5367 193.63244
-280.39568 7720.6355 298.96876
248.98816 7497.1306 290.90457
110.69214 7529.6381 196.56535
-27.545172 7533.9351 185.53027
-168.25646 7545.6495 204.52251
-294.61163 7603.7094 314.90201
265.3757 7314.4802 309.31778
118.28076 7372.339 208.43322
-27.928496 7380.8422 196.26273
-176.39112 7396.9663 215.80591
-309.11205 7481.346 331.31153
282.75996 7119.4046 328.7704
126.31222 7205.8334 220.92785
-28.274792 7219.0857 207.49882
-184.7291 7240.2489 227.54719
-323.95656 7353.4018 348.28823
301.21087 6910.8642 349.49377
134.61134 7029.5505 234.16531
-28.754982 7048.299 219.33366
-193.43291 7075.2715 239.84272
-339.26656 7219.8009 365.91567
320.89809 6687.3548 371.75781
142.95848 6842.6463 248.30425
-29.813911 6868.0647 231.91103
-202.86439 6901.858 252.80818
-355.18976 7080.6226 384.3175
341.80851 6446.4985 395.93224
150.75563 6643.905 263.56116
-32.16103 6677.7568 245.35497
-213.65859 6719.9435 266.53016
-372.00964 6936.2163 403.60874
363.9596 6184.5394 422.60545
156.75453 6431.3116 280.28488
-37.407373 6476.6225 259.93675
-226.84565 6529.775 281.20339
-390.07499 6787.3427 423.94321
386.78189 5894.9213 452.56108
158.32412 6201.3824 298.83502
-48.537383 6263.6197 275.95149
-244.82084 6332.1107 297.09376
-410.34707 6635.6424 445.53452
409.53445 5566.2356 487.12294
150.71707 5947.8926 319.99417
-71.490778 6036.7401 293.81798
-271.91798 6128.6437 314.39097
-434.35943 6484.5279 468.56545
431.04459 5178.9679 528.61098
125.79376 5659.0531 344.95082
-117.02586 5791.8079 314.27573
-316.74359 5922.4674 333.44601
-465.34292 6340.5686 493.19074
451.61535 4701.6784 582.06384
72.038549 5312.8542 376.19096
-204.43095 5517.4537 338.57541
-396.98397 5718.0621 354.54948
-510.16976 6216.7768 519.21104
471.5186 4082.8659 659.16467
-26.49953 4871.9481 421.06846
-364.42452 5182.4619 370.25137
-550.40665 5514.533 377.73094
-586.3878 6140.6467 544.73781
499.12403 3382.3526 716.2316
-103.15828 4291.883 473.98426
-612.63671 4697.5474 415.53093
-856.31038 5267.5769 403.39443
-743.85685 6172.8763 561.68961
555.5452 2826.5091 910.90714
-193.49768 3552.4625 492.86852
-872.76475 4041.8849 421.78048
-1389.5376 4717.0252 411.70985
-1086.8998 6507.3339 493.30568
853.77546 4858.0787 82.662548
2114.6744 5986.1569 41.38595
3008.1534 7224.772 30.718693
3742.4191 8934.9406 29.578772
2125.7944 12704.726 32.791761
553.14704 6300.9438 32.11145
1478.6605 7112.1894 17.872747
2037.8471 8177.5594 18.139655
1889.0179 9645.4008 26.864456
783.18122 10642.951 35.476025
368.6043 7333.73 25.021386
968.03658 7906.0923 24.517644
1184.1145 8659.6722 27.3431
921.12777 9417.3436 35.684227
315.04318 9755.7563 51.684202
250.30135 7997.3263 43.251578
582.09475 8351.5969 37.962753
647.13627 8790.4436 38.542251
453.17112 9160.7412 47.570742
122.61887 9311.6729 67.844763
168.94681 8362.1286 60.234807
338.50395 8561.4359 50.200318
345.05893 8794.716 49.083957
213.92055 8979.9047 59.110082
24.641345 9054.8973 83.004447
121.99704 8536.6264 74.901729
199.29473 8639.7168 61.199497
179.68926 8756.5802 58.847303
86.040464 8848.2462 69.889816
-30.320508 8887.7353 97.017078
98.778342 8597.6815 88.109216
124.02448 8646.2811 71.24965
89.535609 8700.0338 67.887594
14.827524 8742.9919 79.954858
-63.940865 8764.0723 110.10062
89.59881 8592.7532 100.33035
85.076674 8612.1093 80.591831
40.433543 8632.2061 76.419983
-26.435855 8649.5296 89.515806
-86.340407 8660.7481 122.4611
88.427251 8548.8457 111.96106
66.067955 8552.9717 89.567536
13.326108 8555.6008 84.574764
-51.528275 8559.5487 98.619546
-102.48881 8565.501 134.29089
91.452945 8480.719 123.21696
57.792929 8477.0581 98.217915
-1.7582589 8471.1272 92.450141
-67.929548 8468.5715 107.45397
-115.28409 8471.7807 145.78785
96.886462 8396.0946 134.3413
55.359622 8388.8139 106.76378
-10.325236 8379.1515 100.23422
-79.441369 8373.9179 116.16916
-126.1278 8376.0031 157.08243
103.65557 8299.0599 145.46027
56.141893 8290.424 115.28638
-15.266854 8279.8661 107.96645
-88.25115 8274.1336 124.80618
-135.88127 8276.1532 168.274
111.30286 8191.7662 156.66138
58.812384 8183.0434 123.86456
-18.20976 8173.2529 115.72955
-95.560087 8168.4864 133.44675
-144.99611 8171.0497 179.47392
119.4986 8075.298 168.04582
62.545122 8067.2763 132.54765
-19.96303 8059.2178 123.58186
-102.0378 8056.4773 142.17289
-153.83266 8060.0034 190.75261
128.22913 7950.1441 179.6931
67.008767 7943.2755 141.43542
-21.084564 7937.7033 131.5768
-108.05915 7937.7165 151.03194
-162.51802 7942.5841 202.17431
137.35946 7816.4428 191.70281
71.943569 7810.9985 150.565
-21.752455 7808.578 139.77309
-113.81693 7811.9392 160.07989
-171.17541 7818.4602 213.80931
146.96455 7674.0631 204.13894
77.325426 7670.38 159.99398
-22.109899 7671.6548 148.21003
-119.43854 7678.8823 169.36078
-179.86594 7687.3647 225.71322
157.14092 7522.8664 217.07723
83.173265 7521.151 169.78016
-22.245137 7526.7005 156.92828
-125.01458 7538.3243 178.91533
-188.63792 7549.0408 237.93488
167.85434 7362.5182 230.63506
89.402968 7363.0482 179.98831
-22.160341 7373.4262 165.99711
-130.59564 7390.0123 188.81299
-197.5443 7403.2557 250.53973
179.25971 7192.5052 244.94356
96.011148 7195.6997 190.73359
-22.051034 7211.4683 175.48894
-136.29383 7233.7373 199.11132
-206.60003 7249.7777 263.60699
191.35368 7012.0703 260.16596
102.80864 7018.4733 202.1129
-22.057701 7040.4884 185.48177
-142.27067 7069.2666 209.89138
-215.93428 7088.4404 277.20425
204.22654 6820.0622 276.49569
109.58301 6830.5317 214.2615
-22.608547 6860.0654 196.09806
-148.85161 6896.3542 221.2555
-225.63672 6919.2127 291.43231
217.77433 6614.655 294.18832
115.71238 6630.6529 227.36214
-24.462934 6669.5848 207.42538
-156.66867 6714.9944 233.26148
-235.94132 6742.2758 306.38337
231.87371 6392.7688 313.67583
119.93591 6416.6791 241.69895
-29.231349 6468.3025 219.67797
-166.76154 6525.5476 246.05225
-247.18058 6558.2576 322.1593
245.74766 6148.7783 335.49252
119.62363 6185.1033 257.53375
-39.864822 6255.1359 233.04085
-181.50012 6328.7375 259.79967
-260.27293 6368.674 338.88642
258.3883 5872.7629 360.56474
109.96977 5929.601 275.45927
-62.471785 6028.1623 247.70571
-205.27531 6126.4384 274.46264
-276.68992 6176.8728 356.53616
268.17033 5547.5599 390.50519
82.819365 5638.0979 296.2889
-107.91765 5783.488 263.92762
-246.84497 5922.3562 289.86167
-299.71024 5989.6962 374.79642
274.57984 5144.3704 428.79923
26.241425 5288.0543 321.69077
-196.27815 5510.2447 281.87774
-324.69403 5722.3701 305.03222
-336.54511 5821.6556 392.30081
283.28837 4617.1353 481.61658
-69.559792 4840.1996 355.2277
-358.42263 5175.8396 302.24845
-479.93615 5529.4952 316.96222
-406.6624 5707.0478 404.42862
271.39627 3957.3947 548.01962
-189.70024 4244.0025 398.41509
-620.95374 4696.4185 325.99537
-799.00317 5307.8824 318.23968
-568.67201 5738.0803 397.03655
262.57203 2974.6676 742.17882
-351.70539 3496.6501 443.52147
-912.64292 4031.2886 339.993
-1435.482 4718.8971 310.56133
-1014.7952 6273.615 311.96848
844.88353 4868.0291 35.480022
2108.3429 6000.3429 28.287573
3009.5599 7235.7789 22.769855
3746.7235 8941.556 22.310559
2130.5411 12707.164 23.978157
547.28132 6320.3544 25.883045
1475.036 7118.1084 19.936884
2040.4285 8178.7093 18.266077
1894.4695 9643.2248 20.705222
789.31765 10634.1 25.67142
364.68266 7333.1158 21.034602
965.60528 7899.5034 19.432497
1185.1651 8652.8586 20.213823
926.91954 9409.8584 24.645879
322.6138 9740.1477 31.508843
244.55084 7990.1001 25.995363
577.33908 8341.7969 25.29411
647.83632 8782.121 26.057984
460.80773 9152.1294 31.306502
132.066 9294.5607 39.400722
161.48988 8356.2045 34.492931
332.08757 8551.822 32.623954
345.93369 8786.5774 32.702261
223.46747 8971.6861 38.493431
35.816002 9037.5688 47.458854
112.94746 8532.3443 42.899525
191.53772 8630.6781 39.731851
180.87413 8748.9418 39.166965
97.405371 8840.628 45.446632
-17.493124 8870.6713 55.175628
88.273977 8594.4821 50.674735
115.11786 8637.7925 46.360589
91.049549 8692.8637 45.258395
27.895472 8735.8899 52.018652
-49.525644 8747.4476 62.48342
77.719702 8590.1386 57.91158
75.111958 8604.0308 52.576502
42.284474 8625.3884 51.008682
-11.768621 8642.8137 58.248782
-70.414432 8644.6646 69.435838
75.234721 8546.4189 64.778209
55.083787 8545.1919 58.501133
15.462806 8549.0492 56.507761
-35.344918 8553.0817 64.216135
-85.088522 8550.0217 76.1197
76.96184 8478.1599 71.419451
45.79282 8469.4905 64.237284
0.64132453 8464.7289 61.831442
-50.289091 8462.2042 70.002011
-96.445385 8456.9581 82.62209
81.093188 8393.1143 77.948349
42.330191 8381.3737 69.881845
-7.6858943 8372.82 67.064288
-60.387005 8367.5421 75.685319
-105.87387 8361.9166 89.013447
86.551789 8295.425 84.454721
42.062512 8283.0696 75.501264
-12.416725 8273.5477 72.265597
-67.811873 8267.67 81.325336
-114.22215 8262.8868 95.360532
92.869001 8187.2539 91.004906
43.659352 8175.7448 81.150798
-15.168732 8166.8922 77.479776
-73.750977 8161.8481 86.969814
-121.93063 8158.6856 101.71159
99.703655 8069.6876 97.651035
46.28483 8060 86.874096
-16.74634 8052.7664 82.751939
-78.862097 8049.5875 92.663557
-129.3533 8048.6344 108.11352
107.03641 7943.2175 104.44651
49.6003 7935.9924 92.718901
-17.711154 7931.1146 88.118784
-83.515086 7930.5085 98.444136
-136.61139 7932.3166 114.59879
114.71812 7807.9765 111.44382
53.336834 7803.6915 98.721711
-18.236427 7801.8125 93.613698
-87.890493 7804.348 104.34642
-143.81669 7809.4053 121.21278
122.81693 7663.8281 118.68667
57.464453 7663.0297 104.9209
-18.465676 7664.6784 99.269634
-92.111513 7670.8442 110.40169
-151.0262 7679.6293 127.98597
131.42243 7510.6072 126.22627
61.995783 7513.7346 111.35514
-18.488988 7519.4687 105.12027
-96.264541 7529.7704 116.63982
-158.28297 7542.7446 134.94464
140.48063 7347.9533 134.12233
66.83069 7355.5263 118.07781
-18.307299 7365.8826 111.20554
-100.39205 7380.8689 123.10361
-165.63014 7398.5226 142.13345
150.13487 7175.3143 142.4602
71.950555 7188.0229 125.14813
-18.124615 7203.5489 117.57615
-104.60261 7223.9168 129.83784
-173.07589 7246.7259 149.59642
160.36124 6991.887 151.32767
77.144695 7010.5862 132.63935
-18.087847 7032.1152 124.28724
-109.05669 7058.6679 136.88766
-180.74517 7087.1847 157.38248
171.22413 6796.4554 160.85128
82.177248 6822.3558 140.64313
-18.63052 6851.1526 131.41054
-114.07568 6884.8798 144.31581
-188.71737 6919.88 165.53756
182.59432 6587.0739 171.19208
86.391322 6622.0568 149.28738
-20.537049 6660.0106 139.02779
-120.29384 6702.523 152.18297
-197.2173 6745.0053 174.12592
194.29984 6360.5193 182.58602
88.460321 6407.4972 158.72124
-25.460793 6457.9175 147.24008
-128.77146 6511.9408 160.55642
-206.57601 6563.2001 183.2005
205.4763 6110.9059 195.37292
85.635235 6175.0899 169.17015
-36.416185 6243.8147 156.15905
-141.92586 6313.9248 169.49041
-217.73404 6376.071 192.79484
215.01187 5827.8212 210.1105
72.885929 5918.3519 180.94467
-59.743414 6015.7855 165.87032
-164.28174 6110.5234 178.92795
-232.19233 6187.2061 202.8101
221.07046 5493.0974 227.77464
41.577919 5624.9086 194.54212
-106.78361 5770.0486 176.37988
-204.98384 5905.9165 188.53427
-253.41741 6004.0482 212.84959
222.88139 5076.4283 250.00149
-21.11154 5271.4531 210.80831
-198.80435 5495.8924 187.51677
-283.62617 5707.2035 197.30535
-289.16335 5842.7604 221.64794
225.3159 4532.5998 278.55787
-126.92459 4818.7604 230.82011
-369.35695 5160.6341 198.88051
-444.33119 5520.3538 202.87166
-360.43109 5741.4192 226.10517
205.15883 3833.8206 318.87853
-262.28273 4219.3978 254.60965
-647.70027 4682.3266 209.68061
-781.95329 5307.3231 202.04112
-533.00447 5799.7977 220.51475
169.38181 2917.6238 349.34125
-459.26466 3467.1418 282.24376
-958.69533 4021.1378 219.44234
-1441.0227 4724.121 197.38262
-999.68985 6327.8819 202.02729
842.46288 4873.2534 11.802989
2106.7732 6006.0565 9.8233254
3009.5568 7240.1337 8.3653803
3748.3553 8944.0412 8.0774623
2132.4159 12708.521 8.5390802
545.25869 6324.5251 9.0009959
1473.7576 7120.7567 7.5791312
2040.8907 8179.5243 6.9987434
1896.406 9642.4646 7.6247154
791.81788 10631.92 9.0163128
362.85914 7333.1237 7.8457605
964.47475 7897.952 7.2890249
1185.7074 8650.407 7.4551655
929.21629 9406.4364 8.720534
325.60854 9735.8063 10.675144
242.46609 7986.2835 8.9991623
575.85868 8337.8106 8.8172233
648.3109 8778.1195 9.1958124
463.5418 9147.6039 10.76391
135.54621 9289.477 13.060676
158.8826 8351.2792 11.470366
330.11265 8547.3607 11.137104
346.45323 8782.3191 11.410015
226.75616 8967.0205 13.117082
39.813914 9032.5125 15.630509
109.81263 8527.5449 14.181292
189.14732 8626.4019 13.534768
181.51558 8744.846 13.644031
101.2659 8836.1464 15.455045
-12.977859 8865.8485 18.140635
84.644845 8589.9891 16.756858
112.37868 8633.7873 15.8065
91.838631 8688.9971 15.771653
32.309821 8731.6401 17.684224
-44.50192 8742.8677 20.53657
73.622895 8585.8984 19.168792
72.056319 8600.2464 17.945368
43.219691 8621.7152 17.785873
-6.8243735 8638.763 19.802974
-64.891308 8640.2793 22.823354
70.684321 8542.3497 21.458878
51.722764 8541.5573 19.983874
16.534252 8545.5153 19.71198
-29.894382 8549.1773 21.836214
-79.075531 8545.7714 25.025181
71.964515 8474.187 23.672651
42.126793 8465.943 21.956102
1.8342513 8461.2821 21.577226
-44.350014 8458.3933 23.80714
-89.94682 8452.7873 27.167369
75.648242 8389.1802 25.845179
38.353349 8377.8639 23.894218
-6.3835174 8369.4141 23.408768
-53.975961 8363.7831 25.742946
-98.897236 8357.7807 29.274646
80.655699 8291.4889 28.007723
37.76575 8279.5568 25.822692
-11.018065 8270.1478 25.228407
-60.936301 8263.9275 27.664142
-106.76614 8258.7453 31.36742
86.511961 8183.2854 30.18254
39.030669 8172.1951 27.759814
-13.682338 8163.4687 27.052
-66.419094 8158.0924 29.586569
-113.99719 8154.5056 33.460962
92.875142 8065.6567 32.389031
41.311535 8056.3864 29.721542
-15.18106 8049.2932 28.895438
-71.0734 8045.792 31.525746
-120.93604 8044.3884 35.572058
99.723618 7939.0974 34.64311
44.268016 7932.2863 31.724272
-16.075733 7927.5683 30.771584
-75.271532 7926.6487 33.495321
-127.70675 7927.9771 37.712786
106.90325 7803.7441 36.963469
47.628273 7799.8665 33.779819
-16.538224 7798.1712 32.69204
-79.188487 7800.4019 35.505669
-134.41533 7804.9478 39.894956
114.47951 7659.4571 39.364611
51.359555 7659.0627 35.902334
-16.712505 7660.9194 34.668776
-82.946517 7666.7933 37.568608
-141.11807 7675.0294 42.130583
122.53905 7506.0693 41.863703
55.471313 7509.5952 38.106023
-16.689691 7515.5675 36.714058
-86.630617 7525.5912 39.695501
-147.85641 7537.9771 44.430362
131.02102 7343.2115 44.481304
59.857832 7351.177 40.408517
-16.471439 7361.8107 38.841723
-90.279707 7376.5343 41.899559
-154.66846 7393.5589 46.806084
140.0643 7170.3225 47.244087
64.495754 7183.4228 42.829962
-16.264023 7199.2718 41.069502
-94.005232 7219.3958 44.196952
-161.5642 7241.5365 49.273961
149.64064 6986.5906 50.182979
69.168119 7005.6814 45.396367
-16.2202 7027.592 43.416801
-97.963196 7053.9254 46.603722
-168.66094 7081.7346 51.851881
159.80253 6790.7786 53.339856
73.627467 6817.0776 48.138081
-16.776405 6846.3334 45.908595
-102.48002 6879.8747 49.140803
-176.04111 6914.1286 54.554756
170.41037 6580.9075 56.769265
77.200611 6616.3172 51.100314
-18.730436 6654.8333 48.573888
-108.18874 6697.2129 51.828468
-183.92178 6738.9154 57.401916
181.27209 6353.705 60.547329
78.529917 6401.1785 54.332097
-23.758616 6452.3159 51.44448
-116.16684 6506.2889 54.68878
-192.64209 6556.7446 60.411288
191.49327 6103.2013 64.78773
74.806683 6168.0312 57.909561
-34.9331 6237.7318 54.556287
-128.86509 6307.9375 57.731684
-203.15143 6369.2725 63.586444
199.90595 5818.8158 69.673072
60.873683 5910.3208 61.931346
-58.723148 6009.2075 57.927459
-150.90039 6104.3372 60.924597
-216.99038 6180.2317 66.877991
204.57659 5482.0919 75.508317
27.827229 5615.5417 66.550048
-106.78392 5763.0751 61.534788
-191.6581 5899.992 64.11941
-237.73523 5997.4349 70.115825
204.59567 5062.5077 82.72925
-37.642834 5260.2457 71.976287
-201.05889 5488.8144 65.266848
-271.33871 5702.6539 66.924531
-273.4467 5837.8547 72.824324
204.61874 4514.1194 92.001446
-147.98358 4805.3595 78.428977
-376.21006 5153.8612 68.905121
-435.27562 5518.9507 68.616327
-345.81316 5740.7171 74.027212
180.70671 3814.8321 102.71731
-290.56426 4204.0805 86.003998
-661.97756 4675.9162 72.342948
-779.56888 5309.3639 68.576796
-521.89766 5804.8463 72.677772
141.05913 2905.7165 111.99953
-494.53715 3455.0329 93.158799
-981.88754 4014.8144 75.749056
-1447.5224 4726.2742 67.627174
-995.78945 6338.0057 67.233849
-1356.8875 1747.5306 99.07257
-1343.2758 1768.1539 302.31208
-1327.9496 1846.2696 522.63451
-1174.6436 1944.8728 637.98855
-1790.289 2015.3852 83.324442
-1771.6447 2041.239 242.45331
-1724.9128 2108.5036 357.4284
-1689.5428 2126.9383 381.9171
-2252.1255 2384.0428 68.782969
-2238.0579 2399.398 195.06288
-2214.5783 2426.5103 283.83589
-2198.183 2409.9368 324.06625
-3022.1883 2843.6467 61.520951
-3014.6166 2845.9448 177.6111
-3006.1881 2841.8515 267.78361
-3005.0698 2814.5967 317.16043
-4390.2857 3995.6465 60.226772
-4386.4685 3989.4824 176.94119
-4385.6733 3968.9951 292.01405
-4387.9102 3864.1046 398.29892
-1143.901 2129.4073 104.30292
-1118.813 2138.8231 318.47768
-1026.8706 2139.6833 545.26149
-843.5987 2249.8818 718.767
-1286.8548 2793.9672 87.672041
-1256.3948 2806.8015 256.36089
-1179.3389 2838.9596 383.64074
-1104.6586 2828.0965 450.21859
-1644.4981 3360.7768 72.639002
-1623.8537 3368.2154 207.86237
-1585.4044 3376.4472 313.28639
-1574.6436 3356.0058 399.64607
-2249.008 4076.4672 64.991821
-2240.3251 4075.3758 188.77197
-2229.3171 4065.86 292.39816
-2250.2234 4034.282 391.12732
-3970.3089 5146.0536 63.402193
-3965.9888 5137.0951 186.80648
-3965.577 5114.4415 304.97701
-4046.1933 5063.3031 463.50101